TACC: Starting up job 1924634
TACC: Setting up parallel environment for MVAPICH ssh-based mpirun.
TACC: Setup complete. Running job script.
TACC: starting parallel tasks...

     Program PWSCF v.5.0.1 starts on 27Apr2014 at 19:44:17 

     This program is part of the open-source Quantum ESPRESSO suite
     for quantum simulation of materials; please cite
         "P. Giannozzi et al., J. Phys.:Condens. Matter 21 395502 (2009);
          URL http://www.quantum-espresso.org", 
     in publications or presentations arising from this work. More details at
     http://www.quantum-espresso.org/quote.php

     Parallel version (MPI), running on    24 processors
     K-points division:     npool     =    2
     R & G space division:  proc/pool =   12

     Current dimensions of program PWSCF are:
     Max number of different atomic species (ntypx) = 10
     Max number of k-points (npk) =  40000
     Max angular momentum in pseudopotentials (lmaxx) =  3
     Waiting for input...
     Reading input from standard input
Warning: card &IONS ignored
Warning: card ION_DYNAMICS='BFGS', ignored
Warning: card / ignored
Warning: card &CELL ignored
Warning: card CELL_DYNAMICS='BFGS', ignored
Warning: card PRESS=0.D0 ignored
Warning: card / ignored

     IMPORTANT: XC functional enforced from input :
     Exchange-correlation      = PBESOL ( 1 410 8 0)
     EXX-fraction              =        0.00
     Any further DFT definition will be discarded
     Please, verify this is what you really want


     Subspace diagonalization in iterative solution of the eigenvalue problem:
     a serial algorithm will be used

 
     Parallelization info
     --------------------
     sticks:   dense  smooth     PW     G-vecs:    dense   smooth      PW
     Min         259     105     30                 9595     2421     372
     Max         260     106     31                 9597     2431     375
     Sum        3115    1261    361               115147    29123    4477
 


     bravais-lattice index     =            0
     lattice parameter (alat)  =      12.2892  a.u.
     unit-cell volume          =     463.9966 (a.u.)^3
     number of atoms/cell      =            2
     number of atomic types    =            2
     number of electrons       =        20.00
     number of Kohn-Sham states=           10
     kinetic-energy cutoff     =      60.0000  Ry
     charge density cutoff     =     600.0000  Ry
     convergence threshold     =      1.0E-10
     mixing beta               =       0.7000
     number of iterations used =            8  plain     mixing
     Exchange-correlation      = PBESOL ( 1 410 8 0)
     EXX-fraction              =        0.00

     celldm(1)=  12.289237  celldm(2)=   0.000000  celldm(3)=   0.000000
     celldm(4)=   0.000000  celldm(5)=   0.000000  celldm(6)=   0.000000

     crystal axes: (cart. coord. in units of alat)
               a(1) = (   0.000000   0.500000   0.500000 )  
               a(2) = (   0.500000   0.000000   0.500000 )  
               a(3) = (   0.500000   0.500000   0.000000 )  

     reciprocal axes: (cart. coord. in units 2 pi/alat)
               b(1) = ( -1.000000  1.000000  1.000000 )  
               b(2) = (  1.000000 -1.000000  1.000000 )  
               b(3) = (  1.000000  1.000000 -1.000000 )  


     PseudoPot. # 1 for Pb read from file:
     /work/02599/asmiller/pseudo/gbrv/pbe_GBRV/pb_pbe_v1.uspp.F.UPF
     MD5 check sum: 3d1c1779aa92214d1e8f3a7db79003e2
     Pseudo is Ultrasoft + core correction, Zval = 14.0
     Generated by new atomic code, or converted to UPF format
     Using radial grid of  899 points,  6 beta functions with: 
                l(1) =   0
                l(2) =   0
                l(3) =   1
                l(4) =   1
                l(5) =   2
                l(6) =   2
     Q(r) pseudized with  6 coefficients,  rinner =    1.000   1.000   1.000
                                                       1.000   1.000

     PseudoPot. # 2 for Te read from file:
     /work/02599/asmiller/pseudo/gbrv/pbe_GBRV/te_pbe_v1.uspp.F.UPF
     MD5 check sum: c319670d6894cc26e93307826a071b75
     Pseudo is Ultrasoft + core correction, Zval =  6.0
     Generated by new atomic code, or converted to UPF format
     Using radial grid of  891 points,  5 beta functions with: 
                l(1) =   0
                l(2) =   0
                l(3) =   1
                l(4) =   1
                l(5) =   2
     Q(r) pseudized with  6 coefficients,  rinner =    1.800   1.800   1.800
                                                       1.800   1.800

     atomic species   valence    mass     pseudopotential
        Pb            14.00   207.20000     Pb( 1.00)
        Te             6.00   127.60000     Te( 1.00)

     48 Sym. Ops., with inversion, found



   Cartesian axes

     site n.     atom                  positions (alat units)
         1           Pb  tau(   1) = (   0.0000000   0.0000000   0.0000000  )
         2           Te  tau(   2) = (   0.5000000   0.5000000   0.5000000  )

     number of k points=    16
                       cart. coord. in units 2pi/alat
        k(    1) = (   0.0000000   0.0000000   0.0000000), wk =   0.0092593
        k(    2) = (   0.1666667   0.1666667  -0.1666667), wk =   0.0740741
        k(    3) = (   0.3333333   0.3333333  -0.3333333), wk =   0.0740741
        k(    4) = (  -0.5000000  -0.5000000   0.5000000), wk =   0.0370370
        k(    5) = (   0.3333333   0.0000000   0.0000000), wk =   0.0555556
        k(    6) = (   0.5000000   0.1666667  -0.1666667), wk =   0.2222222
        k(    7) = (  -0.3333333  -0.6666667   0.6666667), wk =   0.2222222
        k(    8) = (  -0.1666667  -0.5000000   0.5000000), wk =   0.2222222
        k(    9) = (   0.0000000  -0.3333333   0.3333333), wk =   0.1111111
        k(   10) = (   0.6666667   0.0000000   0.0000000), wk =   0.0555556
        k(   11) = (  -0.1666667  -0.8333333   0.8333333), wk =   0.2222222
        k(   12) = (   0.0000000  -0.6666667   0.6666667), wk =   0.1111111
        k(   13) = (  -1.0000000   0.0000000   0.0000000), wk =   0.0277778
        k(   14) = (  -0.3333333  -0.6666667   1.0000000), wk =   0.2222222
        k(   15) = (  -0.1666667  -0.5000000   0.8333333), wk =   0.2222222
        k(   16) = (  -1.0000000   0.3333333   0.0000000), wk =   0.1111111

     Dense  grid:   115147 G-vectors     FFT dimensions: (  72,  72,  72)

     Smooth grid:    29123 G-vectors     FFT dimensions: (  45,  45,  45)

     Largest allocated arrays     est. size (Mb)     dimensions
        Kohn-Sham Wavefunctions         0.05 Mb     (    307,   10)
        NL pseudopotentials             0.15 Mb     (    307,   31)
        Each V/rho on FFT grid          0.47 Mb     (  31104)
        Each G-vector array             0.07 Mb     (   9596)
        G-vector shells                 0.01 Mb     (    757)
     Largest temporary arrays     est. size (Mb)     dimensions
        Each subspace H/S matrix        0.00 Mb     (  10,  10)
        Each <psi_i|beta_j> matrix      0.00 Mb     (     31,   10)
        Arrays for rho mixing           3.80 Mb     (  31104,   8)

     Initial potential from superposition of free atoms
     Check: negative starting charge=   -0.015928

     starting charge   19.99743, renormalised to   20.00000

     negative rho (up, down):  0.159E-01 0.000E+00
     Starting wfc are   13 randomized atomic wfcs

     total cpu time spent up to now is        1.8 secs

     per-process dynamical memory:    61.4 Mb

     Self-consistent Calculation

     iteration #  1     ecut=    60.00 Ry     beta=0.70
     CG style diagonalization
     ethr =  1.00E-02,  avg # of iterations =  2.0

     Threshold (ethr) on eigenvalues was too large:
     Diagonalizing with lowered threshold

     CG style diagonalization
     ethr =  1.86E-04,  avg # of iterations =  2.2

     negative rho (up, down):  0.150E-01 0.000E+00

     total cpu time spent up to now is        2.7 secs

     total energy              =    -190.11162402 Ry
     Harris-Foulkes estimate   =    -190.13135414 Ry
     estimated scf accuracy    <       0.03428690 Ry

     iteration #  2     ecut=    60.00 Ry     beta=0.70
     CG style diagonalization
     ethr =  1.71E-04,  avg # of iterations =  4.1

     negative rho (up, down):  0.154E-01 0.000E+00

     total cpu time spent up to now is        3.2 secs

     total energy              =    -190.12095584 Ry
     Harris-Foulkes estimate   =    -190.13216864 Ry
     estimated scf accuracy    <       0.02104956 Ry

     iteration #  3     ecut=    60.00 Ry     beta=0.70
     CG style diagonalization
     ethr =  1.05E-04,  avg # of iterations =  3.6

     negative rho (up, down):  0.154E-01 0.000E+00

     total cpu time spent up to now is        3.7 secs

     total energy              =    -190.12591167 Ry
     Harris-Foulkes estimate   =    -190.12592134 Ry
     estimated scf accuracy    <       0.00015441 Ry

     iteration #  4     ecut=    60.00 Ry     beta=0.70
     CG style diagonalization
     ethr =  7.72E-07,  avg # of iterations =  4.8

     negative rho (up, down):  0.154E-01 0.000E+00

     total cpu time spent up to now is        4.3 secs

     total energy              =    -190.12610850 Ry
     Harris-Foulkes estimate   =    -190.12611026 Ry
     estimated scf accuracy    <       0.00001115 Ry

     iteration #  5     ecut=    60.00 Ry     beta=0.70
     CG style diagonalization
     ethr =  5.57E-08,  avg # of iterations =  6.9

     negative rho (up, down):  0.155E-01 0.000E+00

     total cpu time spent up to now is        5.1 secs

     total energy              =    -190.12612627 Ry
     Harris-Foulkes estimate   =    -190.12612691 Ry
     estimated scf accuracy    <       0.00000411 Ry

     iteration #  6     ecut=    60.00 Ry     beta=0.70
     CG style diagonalization
     ethr =  2.06E-08,  avg # of iterations =  3.7

     negative rho (up, down):  0.157E-01 0.000E+00

     total cpu time spent up to now is        5.6 secs

     total energy              =    -190.12612638 Ry
     Harris-Foulkes estimate   =    -190.12612744 Ry
     estimated scf accuracy    <       0.00000286 Ry

     iteration #  7     ecut=    60.00 Ry     beta=0.70
     CG style diagonalization
     ethr =  1.43E-08,  avg # of iterations =  4.0

     negative rho (up, down):  0.157E-01 0.000E+00

     total cpu time spent up to now is        6.1 secs

     total energy              =    -190.12612658 Ry
     Harris-Foulkes estimate   =    -190.12612727 Ry
     estimated scf accuracy    <       0.00000113 Ry

     iteration #  8     ecut=    60.00 Ry     beta=0.70
     CG style diagonalization
     ethr =  5.63E-09,  avg # of iterations =  4.2

     negative rho (up, down):  0.156E-01 0.000E+00

     total cpu time spent up to now is        6.7 secs

     total energy              =    -190.12612692 Ry
     Harris-Foulkes estimate   =    -190.12612694 Ry
     estimated scf accuracy    <       0.00000004 Ry

     iteration #  9     ecut=    60.00 Ry     beta=0.70
     CG style diagonalization
     ethr =  2.03E-10,  avg # of iterations =  9.3

     negative rho (up, down):  0.156E-01 0.000E+00

     total cpu time spent up to now is        7.6 secs

     total energy              =    -190.12612715 Ry
     Harris-Foulkes estimate   =    -190.12612716 Ry
     estimated scf accuracy    <       0.00000001 Ry

     iteration # 10     ecut=    60.00 Ry     beta=0.70
     CG style diagonalization
     ethr =  5.42E-11,  avg # of iterations =  5.5

     negative rho (up, down):  0.156E-01 0.000E+00

     total cpu time spent up to now is        8.2 secs

     total energy              =    -190.12612716 Ry
     Harris-Foulkes estimate   =    -190.12612716 Ry
     estimated scf accuracy    <          1.3E-09 Ry

     iteration # 11     ecut=    60.00 Ry     beta=0.70
     CG style diagonalization
     ethr =  6.27E-12,  avg # of iterations =  7.0

     negative rho (up, down):  0.156E-01 0.000E+00

     total cpu time spent up to now is        9.0 secs

     total energy              =    -190.12612716 Ry
     Harris-Foulkes estimate   =    -190.12612716 Ry
     estimated scf accuracy    <          3.0E-10 Ry

     iteration # 12     ecut=    60.00 Ry     beta=0.70
     CG style diagonalization
     ethr =  1.52E-12,  avg # of iterations =  5.5

     negative rho (up, down):  0.156E-01 0.000E+00

     total cpu time spent up to now is        9.6 secs

     End of self-consistent calculation

          k = 0.0000 0.0000 0.0000 (  3695 PWs)   bands (ev):

    -9.5621  -9.5621  -9.5525  -9.5525  -9.5525  -4.8174   1.4018   5.7890
     5.7890   5.7890

          k = 0.1667 0.1667-0.1667 (  3656 PWs)   bands (ev):

    -9.5647  -9.5647  -9.5518  -9.5488  -9.5488  -4.5859   0.7169   5.8559
     5.8559   6.1362

          k = 0.3333 0.3333-0.3333 (  3651 PWs)   bands (ev):

    -9.5712  -9.5712  -9.5505  -9.5401  -9.5401  -3.9546  -0.6223   6.0622
     6.0622   6.6712

          k =-0.5000-0.5000 0.5000 (  3648 PWs)   bands (ev):

    -9.5746  -9.5746  -9.5500  -9.5357  -9.5357  -3.4156  -1.4572   6.2345
     6.2345   7.0516

          k = 0.3333 0.0000 0.0000 (  3651 PWs)   bands (ev):

    -9.5719  -9.5594  -9.5549  -9.5466  -9.5466  -4.5099   0.6762   5.3612
     5.3612   6.7458

          k = 0.5000 0.1667-0.1667 (  3627 PWs)   bands (ev):

    -9.5816  -9.5619  -9.5540  -9.5412  -9.5386  -4.0158  -0.1987   5.1993
     5.2607   5.8948

          k =-0.3333-0.6667 0.6667 (  3646 PWs)   bands (ev):

    -9.5845  -9.5683  -9.5490  -9.5388  -9.5342  -3.3761  -1.1879   4.7964
     5.4768   5.8077

          k =-0.1667-0.5000 0.5000 (  3647 PWs)   bands (ev):

    -9.5779  -9.5716  -9.5475  -9.5390  -9.5385  -3.5555  -0.9879   4.4685
     6.0841   6.5209

          k = 0.0000-0.3333 0.3333 (  3641 PWs)   bands (ev):

    -9.5697  -9.5680  -9.5508  -9.5459  -9.5421  -4.2187   0.0039   4.8799
     6.3338   6.8653

          k = 0.6667 0.0000 0.0000 (  3631 PWs)   bands (ev):

    -9.6003  -9.5596  -9.5540  -9.5342  -9.5342  -3.7199  -0.1074   4.2307
     4.6556   4.6556

          k =-0.1667-0.8333 0.8333 (  3652 PWs)   bands (ev):

    -9.6068  -9.5572  -9.5565  -9.5324  -9.5305  -3.2609  -0.5913   3.2709
     4.6518   4.7610

          k = 0.0000-0.6667 0.6667 (  3627 PWs)   bands (ev):

    -9.5952  -9.5644  -9.5480  -9.5385  -9.5336  -3.1336  -1.0585   3.3240
     5.1998   5.4468

          k =-1.0000 0.0000 0.0000 (  3612 PWs)   bands (ev):

    -9.6186  -9.5619  -9.5514  -9.5278  -9.5278  -3.1845  -0.2395   2.6681
     4.3539   4.3539

          k =-0.3333-0.6667 1.0000 (  3628 PWs)   bands (ev):

    -9.5916  -9.5629  -9.5522  -9.5377  -9.5345  -3.5013  -0.6989   4.1244
     4.5239   6.1244

          k =-0.1667-0.5000 0.8333 (  3630 PWs)   bands (ev):

    -9.5948  -9.5652  -9.5455  -9.5432  -9.5310  -3.1329  -1.0633   3.8293
     3.9342   6.6755

          k =-1.0000 0.3333 0.0000 (  3652 PWs)   bands (ev):

    -9.6068  -9.5589  -9.5537  -9.5366  -9.5278  -3.0716  -0.7420   2.9977
     3.8100   5.8490

!    total energy              =    -190.12612716 Ry
     Harris-Foulkes estimate   =    -190.12612716 Ry
     estimated scf accuracy    <          6.4E-12 Ry

     The total energy is the sum of the following terms:

     one-electron contribution =     -46.86125511 Ry
     hartree contribution      =      35.37546263 Ry
     xc contribution           =     -77.18870789 Ry
     ewald contribution        =    -101.45162679 Ry

     convergence has been achieved in  12 iterations

     Forces acting on atoms (Ry/au):


     negative rho (up, down):  0.156E-01 0.000E+00
     atom    1 type  1   force =     0.00000000    0.00000000    0.00000000
     atom    2 type  2   force =     0.00000000    0.00000000    0.00000000

     Total force =     0.000000     Total SCF correction =     0.000000


     entering subroutine stress ...


     negative rho (up, down):  0.156E-01 0.000E+00
          total   stress  (Ry/bohr**3)                   (kbar)     P=  -12.31
  -0.00008366   0.00000000   0.00000000        -12.31      0.00      0.00
   0.00000000  -0.00008366   0.00000000          0.00    -12.31      0.00
   0.00000000   0.00000000  -0.00008366          0.00      0.00    -12.31


     Writing output data file PbTe.save
 
     init_run     :      1.02s CPU      1.30s WALL (       1 calls)
     electrons    :      7.22s CPU      7.72s WALL (       1 calls)
     forces       :      0.18s CPU      0.19s WALL (       1 calls)
     stress       :      0.53s CPU      0.53s WALL (       1 calls)

     Called by init_run:
     wfcinit      :      0.12s CPU      0.25s WALL (       1 calls)
     potinit      :      0.10s CPU      0.11s WALL (       1 calls)

     Called by electrons:
     c_bands      :      4.52s CPU      4.65s WALL (      13 calls)
     sum_band     :      1.30s CPU      1.33s WALL (      13 calls)
     v_of_rho     :      0.40s CPU      0.42s WALL (      13 calls)
     newd         :      0.78s CPU      0.79s WALL (      13 calls)
     mix_rho      :      0.07s CPU      0.07s WALL (      13 calls)

     Called by c_bands:
     init_us_2    :      0.05s CPU      0.04s WALL (     232 calls)
     ccgdiagg     :      3.77s CPU      3.85s WALL (     104 calls)
     wfcrot       :      0.73s CPU      0.89s WALL (      96 calls)

     Called by *cgdiagg:
     h_psi        :      3.64s CPU      3.81s WALL (    4201 calls)
     s_psi        :      0.11s CPU      0.11s WALL (    8306 calls)
     cdiaghg      :      0.02s CPU      0.11s WALL (      96 calls)

     Called by h_psi:
     add_vuspsi   :      0.04s CPU      0.07s WALL (    4201 calls)

     General routines
     calbec       :      0.50s CPU      0.45s WALL (    8426 calls)
     fft          :      0.49s CPU      0.49s WALL (     233 calls)
     ffts         :      0.01s CPU      0.01s WALL (      26 calls)
     fftw         :      2.93s CPU      3.18s WALL (   11218 calls)
     interpolate  :      0.07s CPU      0.07s WALL (      26 calls)
     davcio       :      0.00s CPU      0.02s WALL (     336 calls)
 
     Parallel routines
     fft_scatter  :      1.51s CPU      1.76s WALL (   11477 calls)
 
     PWSCF        :     9.19s CPU        11.16s WALL

 
   This run was terminated on:  19:44:28  27Apr2014            

=------------------------------------------------------------------------------=
   JOB DONE.
=------------------------------------------------------------------------------=
TACC: Shutting down parallel environment.
TACC: Shutdown complete. Exiting.
