TACC: Starting up job 1924634
TACC: Setting up parallel environment for MVAPICH ssh-based mpirun.
TACC: Setup complete. Running job script.
TACC: starting parallel tasks...

     Program PHONON v.5.0.1 starts on 27Apr2014 at 19:44:31 

     This program is part of the open-source Quantum ESPRESSO suite
     for quantum simulation of materials; please cite
         "P. Giannozzi et al., J. Phys.:Condens. Matter 21 395502 (2009);
          URL http://www.quantum-espresso.org", 
     in publications or presentations arising from this work. More details at
     http://www.quantum-espresso.org/quote.php

     Parallel version (MPI), running on    24 processors
     K-points division:     npool     =    2
     R & G space division:  proc/pool =   12

     Ultrasoft (Vanderbilt) Pseudopotentials

   Info: using nr1, nr2, nr3 values from input

   Info: using nr1s, nr2s, nr3s values from input

     IMPORTANT: XC functional enforced from input :
     Exchange-correlation      = PBESOL ( 1 410 8 0)
     EXX-fraction              =        0.00
     Any further DFT definition will be discarded
     Please, verify this is what you really want

 
     Parallelization info
     --------------------
     sticks:   dense  smooth     PW     G-vecs:    dense   smooth      PW
     Min         259     105     30                 9595     2421     372
     Max         260     106     31                 9597     2431     375
     Sum        3115    1261    361               115147    29123    4477
 

     negative rho (up, down):  0.156E-01 0.000E+00


     Dynamical matrices for ( 6, 6, 6)  uniform grid of q-points
     (  16q-points):
       N         xq(1)         xq(2)         xq(3) 
       1   0.000000000   0.000000000   0.000000000
       2   0.166666667   0.166666667  -0.166666667
       3   0.333333333   0.333333333  -0.333333333
       4  -0.500000000  -0.500000000   0.500000000
       5   0.333333333   0.000000000   0.000000000
       6   0.500000000   0.166666667  -0.166666667
       7  -0.333333333  -0.666666667   0.666666667
       8  -0.166666667  -0.500000000   0.500000000
       9   0.000000000  -0.333333333   0.333333333
      10   0.666666667   0.000000000   0.000000000
      11  -0.166666667  -0.833333333   0.833333333
      12   0.000000000  -0.666666667   0.666666667
      13  -1.000000000   0.000000000   0.000000000
      14  -0.333333333  -0.666666667   1.000000000
      15  -0.166666667  -0.500000000   0.833333333
      16  -1.000000000   0.333333333   0.000000000

     Calculation of q =    0.0000000   0.0000000   0.0000000

                                                                                

     bravais-lattice index     =            0
     lattice parameter (alat)  =      12.2892  a.u.
     unit-cell volume          =     463.9966 (a.u.)^3
     number of atoms/cell      =            2
     number of atomic types    =            2
     kinetic-energy cut-off    =      60.0000  Ry
     charge density cut-off    =     600.0000  Ry
     convergence threshold     =      1.0E-16
     beta                      =       0.7000
     number of iterations used =            4
     Exchange-correlation      = PBESOL ( 1 410 8 0)
     EXX-fraction              =        0.00


     celldm(1)=   12.28924  celldm(2)=    0.00000  celldm(3)=    0.00000
     celldm(4)=    0.00000  celldm(5)=    0.00000  celldm(6)=    0.00000

     crystal axes: (cart. coord. in units of alat)
               a(1) = (  0.0000  0.5000  0.5000 )  
               a(2) = (  0.5000  0.0000  0.5000 )  
               a(3) = (  0.5000  0.5000  0.0000 )  

     reciprocal axes: (cart. coord. in units 2 pi/alat)
               b(1) = ( -1.0000  1.0000  1.0000 )  
               b(2) = (  1.0000 -1.0000  1.0000 )  
               b(3) = (  1.0000  1.0000 -1.0000 )  


     Atoms inside the unit cell: 

   Cartesian axes

     site n.  atom      mass           positions (alat units)
        1        Pb 207.2000   tau( 1) = (    0.00000    0.00000    0.00000  )
        2        Te 127.6000   tau( 2) = (    0.50000    0.50000    0.50000  )

     Computing dynamical matrix for 
                    q = (   0.0000000   0.0000000   0.0000000 )
 
     49 Sym.Ops. (with q -> -q+G )


     G cutoff = 2295.3102  (   9596 G-vectors)     FFT grid: ( 72, 72, 72)
     G cutoff =  918.1241  (   2430 G-vectors)  smooth grid: ( 45, 45, 45)
     number of k points=    16

     PseudoPot. # 1 for Pb read from file:
     /work/02599/asmiller/pseudo/gbrv/pbe_GBRV/pb_pbe_v1.uspp.F.UPF
     MD5 check sum: a5f44a0c8587cfbb5a05efeead6b9227
     Pseudo is Ultrasoft + core correction, Zval = 14.0
     Generated by new atomic code, or converted to UPF format
     Using radial grid of  899 points,  6 beta functions with: 
                l(1) =   0
                l(2) =   0
                l(3) =   1
                l(4) =   1
                l(5) =   2
                l(6) =   2
     Q(r) pseudized with  6 coefficients,  rinner =    1.000   1.000   1.000
                                                       1.000   1.000

     PseudoPot. # 2 for Te read from file:
     /work/02599/asmiller/pseudo/gbrv/pbe_GBRV/te_pbe_v1.uspp.F.UPF
     MD5 check sum: 749656373d74338a59c146dbd702c29e
     Pseudo is Ultrasoft + core correction, Zval =  6.0
     Generated by new atomic code, or converted to UPF format
     Using radial grid of  891 points,  5 beta functions with: 
                l(1) =   0
                l(2) =   0
                l(3) =   1
                l(4) =   1
                l(5) =   2
     Q(r) pseudized with  6 coefficients,  rinner =    1.800   1.800   1.800
                                                       1.800   1.800


     Electric field:
     Dielectric constant
     Born effective charges in two ways 


     Atomic displacements:
     There are   2 irreducible representations

     Representation     1      3 modes -T_1u G_15  G_4- To be done

     Representation     2      3 modes -T_1u G_15  G_4- To be done



     Alpha used in Ewald sum =   2.8000

     negative rho (up, down):  0.156E-01 0.000E+00
     PHONON       :     4.97s CPU         5.99s WALL


     Electric Fields Calculation

      iter #   1 total cpu time :    15.0 secs   av.it.:   7.3
      thresh= 0.100E-01 alpha_mix =  0.700 |ddv_scf|^2 =  0.398E-07

      iter #   2 total cpu time :    20.6 secs   av.it.:  15.8
      thresh= 0.199E-04 alpha_mix =  0.700 |ddv_scf|^2 =  0.429E-08

      iter #   3 total cpu time :    26.1 secs   av.it.:  15.9
      thresh= 0.655E-05 alpha_mix =  0.700 |ddv_scf|^2 =  0.362E-09

      iter #   4 total cpu time :    31.6 secs   av.it.:  15.8
      thresh= 0.190E-05 alpha_mix =  0.700 |ddv_scf|^2 =  0.265E-10

      iter #   5 total cpu time :    36.9 secs   av.it.:  15.5
      thresh= 0.515E-06 alpha_mix =  0.700 |ddv_scf|^2 =  0.159E-12

      iter #   6 total cpu time :    42.3 secs   av.it.:  15.8
      thresh= 0.398E-07 alpha_mix =  0.700 |ddv_scf|^2 =  0.435E-15

      iter #   7 total cpu time :    47.8 secs   av.it.:  16.3
      thresh= 0.208E-08 alpha_mix =  0.700 |ddv_scf|^2 =  0.258E-16

     End of electric fields calculation

          Dielectric constant in cartesian axis 

          (      31.340226153       0.000000000       0.000000000 )
          (       0.000000000      31.340226153       0.000000000 )
          (       0.000000000       0.000000000      31.340226153 )

          Effective charges (d Force / dE) in cartesian axis

           atom      1   Pb 
      Ex  (        5.47400        0.00000        0.00000 )
      Ey  (        0.00000        5.47400        0.00000 )
      Ez  (        0.00000        0.00000        5.47400 )
           atom      2   Te 
      Ex  (       -5.71532        0.00000        0.00000 )
      Ey  (        0.00000       -5.71532        0.00000 )
      Ez  (        0.00000        0.00000       -5.71532 )


     Representation #  1 modes #   1  2  3

     Self-consistent Calculation

      iter #   1 total cpu time :    54.7 secs   av.it.:   5.0
      thresh= 0.100E-01 alpha_mix =  0.700 |ddv_scf|^2 =  0.711E-08

      iter #   2 total cpu time :    60.2 secs   av.it.:  16.4
      thresh= 0.843E-05 alpha_mix =  0.700 |ddv_scf|^2 =  0.118E-08

      iter #   3 total cpu time :    65.8 secs   av.it.:  16.7
      thresh= 0.343E-05 alpha_mix =  0.700 |ddv_scf|^2 =  0.642E-10

      iter #   4 total cpu time :    71.4 secs   av.it.:  16.9
      thresh= 0.801E-06 alpha_mix =  0.700 |ddv_scf|^2 =  0.238E-11

      iter #   5 total cpu time :    77.1 secs   av.it.:  17.1
      thresh= 0.154E-06 alpha_mix =  0.700 |ddv_scf|^2 =  0.202E-13

      iter #   6 total cpu time :    83.1 secs   av.it.:  16.6
      thresh= 0.142E-07 alpha_mix =  0.700 |ddv_scf|^2 =  0.470E-15

      iter #   7 total cpu time :    88.7 secs   av.it.:  16.8
      thresh= 0.217E-08 alpha_mix =  0.700 |ddv_scf|^2 =  0.721E-17

     End of self-consistent calculation

     Convergence has been achieved 


     Representation #  2 modes #   4  5  6

     Self-consistent Calculation

      iter #   1 total cpu time :    93.3 secs   av.it.:   8.4
      thresh= 0.100E-01 alpha_mix =  0.700 |ddv_scf|^2 =  0.369E-06

      iter #   2 total cpu time :    99.0 secs   av.it.:  17.2
      thresh= 0.607E-04 alpha_mix =  0.700 |ddv_scf|^2 =  0.139E-06

      iter #   3 total cpu time :   104.7 secs   av.it.:  16.8
      thresh= 0.373E-04 alpha_mix =  0.700 |ddv_scf|^2 =  0.990E-10

      iter #   4 total cpu time :   110.4 secs   av.it.:  17.4
      thresh= 0.995E-06 alpha_mix =  0.700 |ddv_scf|^2 =  0.570E-11

      iter #   5 total cpu time :   116.2 secs   av.it.:  17.6
      thresh= 0.239E-06 alpha_mix =  0.700 |ddv_scf|^2 =  0.356E-12

      iter #   6 total cpu time :   121.8 secs   av.it.:  16.8
      thresh= 0.597E-07 alpha_mix =  0.700 |ddv_scf|^2 =  0.163E-14

      iter #   7 total cpu time :   127.5 secs   av.it.:  17.0
      thresh= 0.403E-08 alpha_mix =  0.700 |ddv_scf|^2 =  0.908E-16

     End of self-consistent calculation

     Convergence has been achieved 
 
     Number of q in the star =    1
     List of q in the star:
          1   0.000000000   0.000000000   0.000000000

          Dielectric constant in cartesian axis 

          (      31.340226153       0.000000000       0.000000000 )
          (       0.000000000      31.340226153       0.000000000 )
          (       0.000000000       0.000000000      31.340226153 )

          Effective charges (d Force / dE) in cartesian axis

           atom      1   Pb 
      Ex  (        5.47400        0.00000        0.00000 )
      Ey  (        0.00000        5.47400        0.00000 )
      Ez  (        0.00000        0.00000        5.47400 )
           atom      2   Te 
      Ex  (       -5.71532        0.00000        0.00000 )
      Ey  (        0.00000       -5.71532        0.00000 )
      Ez  (        0.00000        0.00000       -5.71532 )

          Effective charges (d P / du) in cartesian axis 

           atom      1   Pb 
      Px  (        5.63218        0.00000        0.00000 )
      Py  (        0.00000        5.63218        0.00000 )
      Pz  (        0.00000        0.00000        5.63218 )
           atom      2   Te 
      Px  (       -5.64464        0.00000        0.00000 )
      Py  (        0.00000       -5.64464        0.00000 )
      Pz  (        0.00000        0.00000       -5.64464 )

     Diagonalizing the dynamical matrix

     q = (    0.000000000   0.000000000   0.000000000 ) 

 **************************************************************************
     omega( 1) =      -0.130205 [THz] =      -4.343171 [cm-1]
     omega( 2) =      -0.130205 [THz] =      -4.343171 [cm-1]
     omega( 3) =      -0.130205 [THz] =      -4.343171 [cm-1]
     omega( 4) =       0.360784 [THz] =      12.034459 [cm-1]
     omega( 5) =       0.360784 [THz] =      12.034459 [cm-1]
     omega( 6) =       0.360784 [THz] =      12.034459 [cm-1]
 **************************************************************************

     Mode symmetry, O_h (m-3m)  point group:

     omega(  1 -  3) =         -4.3  [cm-1]   --> T_1u G_15  G_4- I  
     omega(  4 -  6) =         12.0  [cm-1]   --> T_1u G_15  G_4- I  

 **************************************************************************

     Calculation of q =    0.1666667   0.1666667  -0.1666667
 
     Parallelization info
     --------------------
     sticks:   dense  smooth     PW     G-vecs:    dense   smooth      PW
     Min         259     105     30                 9595     2422     386
     Max         260     106     31                 9597     2432     389
     Sum        3115    1261    367               115147    29123    4645
 


     bravais-lattice index     =            0
     lattice parameter (alat)  =      12.2892  a.u.
     unit-cell volume          =     463.9966 (a.u.)^3
     number of atoms/cell      =            2
     number of atomic types    =            2
     number of electrons       =        20.00
     number of Kohn-Sham states=           10
     kinetic-energy cutoff     =      60.0000  Ry
     charge density cutoff     =     600.0000  Ry
     Exchange-correlation      = PBESOL ( 1 410 8 0)
     EXX-fraction              =        0.00

     celldm(1)=  12.289237  celldm(2)=   0.000000  celldm(3)=   0.000000
     celldm(4)=   0.000000  celldm(5)=   0.000000  celldm(6)=   0.000000

     crystal axes: (cart. coord. in units of alat)
               a(1) = (   0.000000   0.500000   0.500000 )  
               a(2) = (   0.500000   0.000000   0.500000 )  
               a(3) = (   0.500000   0.500000   0.000000 )  

     reciprocal axes: (cart. coord. in units 2 pi/alat)
               b(1) = ( -1.000000  1.000000  1.000000 )  
               b(2) = (  1.000000 -1.000000  1.000000 )  
               b(3) = (  1.000000  1.000000 -1.000000 )  


     PseudoPot. # 1 for Pb read from file:
     /work/02599/asmiller/pseudo/gbrv/pbe_GBRV/pb_pbe_v1.uspp.F.UPF
     MD5 check sum: a5f44a0c8587cfbb5a05efeead6b9227
     Pseudo is Ultrasoft + core correction, Zval = 14.0
     Generated by new atomic code, or converted to UPF format
     Using radial grid of  899 points,  6 beta functions with: 
                l(1) =   0
                l(2) =   0
                l(3) =   1
                l(4) =   1
                l(5) =   2
                l(6) =   2
     Q(r) pseudized with  6 coefficients,  rinner =    1.000   1.000   1.000
                                                       1.000   1.000

     PseudoPot. # 2 for Te read from file:
     /work/02599/asmiller/pseudo/gbrv/pbe_GBRV/te_pbe_v1.uspp.F.UPF
     MD5 check sum: 749656373d74338a59c146dbd702c29e
     Pseudo is Ultrasoft + core correction, Zval =  6.0
     Generated by new atomic code, or converted to UPF format
     Using radial grid of  891 points,  5 beta functions with: 
                l(1) =   0
                l(2) =   0
                l(3) =   1
                l(4) =   1
                l(5) =   2
     Q(r) pseudized with  6 coefficients,  rinner =    1.800   1.800   1.800
                                                       1.800   1.800

     atomic species   valence    mass     pseudopotential
        Pb            14.00   207.20000     Pb( 1.00)
        Te             6.00   127.60000     Te( 1.00)

     48 Sym. Ops., with inversion, found



   Cartesian axes

     site n.     atom                  positions (alat units)
         1           Pb  tau(   1) = (   0.0000000   0.0000000   0.0000000  )
         2           Te  tau(   2) = (   0.5000000   0.5000000   0.5000000  )

     number of k points=   112

     Number of k-points >= 100: set verbosity='high' to print them.

     Dense  grid:   115147 G-vectors     FFT dimensions: (  72,  72,  72)

     Smooth grid:    29123 G-vectors     FFT dimensions: (  45,  45,  45)

     Largest allocated arrays     est. size (Mb)     dimensions
        Kohn-Sham Wavefunctions         0.05 Mb     (    314,   10)
        NL pseudopotentials             0.15 Mb     (    314,   31)
        Each V/rho on FFT grid          0.47 Mb     (  31104)
        Each G-vector array             0.07 Mb     (   9596)
        G-vector shells                 0.01 Mb     (    756)
     Largest temporary arrays     est. size (Mb)     dimensions
        Auxiliary wavefunctions         0.19 Mb     (    314,   40)
        Each subspace H/S matrix        0.02 Mb     (  40,  40)
        Each <psi_i|beta_j> matrix      0.00 Mb     (     31,   10)

     The potential is recalculated from file :
     ./_ph0/PbTe.save/charge-density.dat


     negative rho (up, down):  0.156E-01 0.000E+00
     Starting wfc are   13 atomic wfcs

     total cpu time spent up to now is        0.7 secs

     per-process dynamical memory:    65.2 Mb

     Band Structure Calculation
     Davidson diagonalization with overlap

     ethr =  5.00E-11,  avg # of iterations = 29.8

     total cpu time spent up to now is       11.1 secs

     End of band structure calculation

     Number of k-points >= 100: set verbosity='high' to print the bands.

     Writing output data file PbTe.save

                                                                                

     bravais-lattice index     =            0
     lattice parameter (alat)  =      12.2892  a.u.
     unit-cell volume          =     463.9966 (a.u.)^3
     number of atoms/cell      =            2
     number of atomic types    =            2
     kinetic-energy cut-off    =      60.0000  Ry
     charge density cut-off    =     600.0000  Ry
     convergence threshold     =      1.0E-16
     beta                      =       0.7000
     number of iterations used =            4
     Exchange-correlation      = PBESOL ( 1 410 8 0)
     EXX-fraction              =        0.00


     celldm(1)=   12.28924  celldm(2)=    0.00000  celldm(3)=    0.00000
     celldm(4)=    0.00000  celldm(5)=    0.00000  celldm(6)=    0.00000

     crystal axes: (cart. coord. in units of alat)
               a(1) = (  0.0000  0.5000  0.5000 )  
               a(2) = (  0.5000  0.0000  0.5000 )  
               a(3) = (  0.5000  0.5000  0.0000 )  

     reciprocal axes: (cart. coord. in units 2 pi/alat)
               b(1) = ( -1.0000  1.0000  1.0000 )  
               b(2) = (  1.0000 -1.0000  1.0000 )  
               b(3) = (  1.0000  1.0000 -1.0000 )  


     Atoms inside the unit cell: 

   Cartesian axes

     site n.  atom      mass           positions (alat units)
        1        Pb 207.2000   tau( 1) = (    0.00000    0.00000    0.00000  )
        2        Te 127.6000   tau( 2) = (    0.50000    0.50000    0.50000  )

     Computing dynamical matrix for 
                    q = (   0.1666667   0.1666667  -0.1666667 )
 
      6 Sym.Ops. (no q -> -q+G )


     G cutoff = 2295.3102  (   9596 G-vectors)     FFT grid: ( 72, 72, 72)
     G cutoff =  918.1241  (   2430 G-vectors)  smooth grid: ( 45, 45, 45)
     number of k points=   112

     PseudoPot. # 1 for Pb read from file:
     /work/02599/asmiller/pseudo/gbrv/pbe_GBRV/pb_pbe_v1.uspp.F.UPF
     MD5 check sum: a5f44a0c8587cfbb5a05efeead6b9227
     Pseudo is Ultrasoft + core correction, Zval = 14.0
     Generated by new atomic code, or converted to UPF format
     Using radial grid of  899 points,  6 beta functions with: 
                l(1) =   0
                l(2) =   0
                l(3) =   1
                l(4) =   1
                l(5) =   2
                l(6) =   2
     Q(r) pseudized with  6 coefficients,  rinner =    1.000   1.000   1.000
                                                       1.000   1.000

     PseudoPot. # 2 for Te read from file:
     /work/02599/asmiller/pseudo/gbrv/pbe_GBRV/te_pbe_v1.uspp.F.UPF
     MD5 check sum: 749656373d74338a59c146dbd702c29e
     Pseudo is Ultrasoft + core correction, Zval =  6.0
     Generated by new atomic code, or converted to UPF format
     Using radial grid of  891 points,  5 beta functions with: 
                l(1) =   0
                l(2) =   0
                l(3) =   1
                l(4) =   1
                l(5) =   2
     Q(r) pseudized with  6 coefficients,  rinner =    1.800   1.800   1.800
                                                       1.800   1.800


     Atomic displacements:
     There are   4 irreducible representations

     Representation     1      1 modes -A_1  L_1 To be done

     Representation     2      1 modes -A_1  L_1 To be done

     Representation     3      2 modes -E    L_3 To be done

     Representation     4      2 modes -E    L_3 To be done



     Alpha used in Ewald sum =   2.8000

     negative rho (up, down):  0.156E-01 0.000E+00
     PHONON       :  2m16.10s CPU     2m23.38s WALL



     Representation #  1 mode #   1

     Self-consistent Calculation

      iter #   1 total cpu time :   145.6 secs   av.it.:   6.3
      thresh= 0.100E-01 alpha_mix =  0.700 |ddv_scf|^2 =  0.905E-03

      iter #   2 total cpu time :   149.4 secs   av.it.:  13.4
      thresh= 0.301E-02 alpha_mix =  0.700 |ddv_scf|^2 =  0.100E+00

      iter #   3 total cpu time :   152.7 secs   av.it.:  10.8
      thresh= 0.100E-01 alpha_mix =  0.700 |ddv_scf|^2 =  0.548E-07

      iter #   4 total cpu time :   157.2 secs   av.it.:  16.6
      thresh= 0.234E-04 alpha_mix =  0.700 |ddv_scf|^2 =  0.125E-06

      iter #   5 total cpu time :   161.3 secs   av.it.:  14.8
      thresh= 0.354E-04 alpha_mix =  0.700 |ddv_scf|^2 =  0.482E-08

      iter #   6 total cpu time :   165.2 secs   av.it.:  13.9
      thresh= 0.694E-05 alpha_mix =  0.700 |ddv_scf|^2 =  0.600E-09

      iter #   7 total cpu time :   168.8 secs   av.it.:  12.8
      thresh= 0.245E-05 alpha_mix =  0.700 |ddv_scf|^2 =  0.573E-11

      iter #   8 total cpu time :   172.8 secs   av.it.:  14.3
      thresh= 0.239E-06 alpha_mix =  0.700 |ddv_scf|^2 =  0.664E-12

      iter #   9 total cpu time :   176.7 secs   av.it.:  14.1
      thresh= 0.815E-07 alpha_mix =  0.700 |ddv_scf|^2 =  0.211E-12

      iter #  10 total cpu time :   179.8 secs   av.it.:  10.1
      thresh= 0.459E-07 alpha_mix =  0.700 |ddv_scf|^2 =  0.194E-13

      iter #  11 total cpu time :   183.8 secs   av.it.:  14.3
      thresh= 0.139E-07 alpha_mix =  0.700 |ddv_scf|^2 =  0.247E-15

      iter #  12 total cpu time :   188.0 secs   av.it.:  15.3
      thresh= 0.157E-08 alpha_mix =  0.700 |ddv_scf|^2 =  0.121E-16

     End of self-consistent calculation

     Convergence has been achieved 


     Representation #  2 mode #   2

     Self-consistent Calculation

      iter #   1 total cpu time :   191.2 secs   av.it.:  10.0
      thresh= 0.100E-01 alpha_mix =  0.700 |ddv_scf|^2 =  0.479E-02

      iter #   2 total cpu time :   195.0 secs   av.it.:  13.4
      thresh= 0.692E-02 alpha_mix =  0.700 |ddv_scf|^2 =  0.533E+00

      iter #   3 total cpu time :   198.5 secs   av.it.:  12.4
      thresh= 0.100E-01 alpha_mix =  0.700 |ddv_scf|^2 =  0.518E-05

      iter #   4 total cpu time :   202.8 secs   av.it.:  15.6
      thresh= 0.228E-03 alpha_mix =  0.700 |ddv_scf|^2 =  0.177E-05

      iter #   5 total cpu time :   207.0 secs   av.it.:  15.2
      thresh= 0.133E-03 alpha_mix =  0.700 |ddv_scf|^2 =  0.659E-08

      iter #   6 total cpu time :   211.3 secs   av.it.:  15.6
      thresh= 0.812E-05 alpha_mix =  0.700 |ddv_scf|^2 =  0.105E-08

      iter #   7 total cpu time :   215.3 secs   av.it.:  14.0
      thresh= 0.324E-05 alpha_mix =  0.700 |ddv_scf|^2 =  0.146E-09

      iter #   8 total cpu time :   219.0 secs   av.it.:  13.1
      thresh= 0.121E-05 alpha_mix =  0.700 |ddv_scf|^2 =  0.268E-10

      iter #   9 total cpu time :   222.6 secs   av.it.:  12.7
      thresh= 0.517E-06 alpha_mix =  0.700 |ddv_scf|^2 =  0.887E-14

      iter #  10 total cpu time :   226.9 secs   av.it.:  15.8
      thresh= 0.942E-08 alpha_mix =  0.700 |ddv_scf|^2 =  0.468E-12

      iter #  11 total cpu time :   229.9 secs   av.it.:   9.5
      thresh= 0.684E-07 alpha_mix =  0.700 |ddv_scf|^2 =  0.101E-14

      iter #  12 total cpu time :   234.1 secs   av.it.:  15.4
      thresh= 0.318E-08 alpha_mix =  0.700 |ddv_scf|^2 =  0.107E-15

      iter #  13 total cpu time :   238.2 secs   av.it.:  14.8
      thresh= 0.103E-08 alpha_mix =  0.700 |ddv_scf|^2 =  0.431E-16

     End of self-consistent calculation

     Convergence has been achieved 


     Representation #  3 modes #   3  4

     Self-consistent Calculation

      iter #   1 total cpu time :   242.2 secs   av.it.:   4.9
      thresh= 0.100E-01 alpha_mix =  0.700 |ddv_scf|^2 =  0.167E-07

      iter #   2 total cpu time :   251.4 secs   av.it.:  17.2
      thresh= 0.129E-04 alpha_mix =  0.700 |ddv_scf|^2 =  0.228E-08

      iter #   3 total cpu time :   260.8 secs   av.it.:  17.7
      thresh= 0.478E-05 alpha_mix =  0.700 |ddv_scf|^2 =  0.132E-09

      iter #   4 total cpu time :   270.2 secs   av.it.:  17.8
      thresh= 0.115E-05 alpha_mix =  0.700 |ddv_scf|^2 =  0.730E-11

      iter #   5 total cpu time :   279.6 secs   av.it.:  17.7
      thresh= 0.270E-06 alpha_mix =  0.700 |ddv_scf|^2 =  0.428E-13

      iter #   6 total cpu time :   289.1 secs   av.it.:  17.8
      thresh= 0.207E-07 alpha_mix =  0.700 |ddv_scf|^2 =  0.101E-14

      iter #   7 total cpu time :   298.4 secs   av.it.:  17.4
      thresh= 0.318E-08 alpha_mix =  0.700 |ddv_scf|^2 =  0.174E-16

     End of self-consistent calculation

     Convergence has been achieved 


     Representation #  4 modes #   5  6

     Self-consistent Calculation

      iter #   1 total cpu time :   304.2 secs   av.it.:   9.1
      thresh= 0.100E-01 alpha_mix =  0.700 |ddv_scf|^2 =  0.838E-06

      iter #   2 total cpu time :   313.7 secs   av.it.:  17.9
      thresh= 0.915E-04 alpha_mix =  0.700 |ddv_scf|^2 =  0.304E-06

      iter #   3 total cpu time :   323.0 secs   av.it.:  17.4
      thresh= 0.552E-04 alpha_mix =  0.700 |ddv_scf|^2 =  0.209E-09

      iter #   4 total cpu time :   332.6 secs   av.it.:  18.2
      thresh= 0.145E-05 alpha_mix =  0.700 |ddv_scf|^2 =  0.132E-10

      iter #   5 total cpu time :   342.2 secs   av.it.:  18.2
      thresh= 0.363E-06 alpha_mix =  0.700 |ddv_scf|^2 =  0.757E-12

      iter #   6 total cpu time :   351.5 secs   av.it.:  17.6
      thresh= 0.870E-07 alpha_mix =  0.700 |ddv_scf|^2 =  0.336E-14

      iter #   7 total cpu time :   360.8 secs   av.it.:  17.5
      thresh= 0.580E-08 alpha_mix =  0.700 |ddv_scf|^2 =  0.179E-15

      iter #   8 total cpu time :   370.1 secs   av.it.:  17.5
      thresh= 0.134E-08 alpha_mix =  0.700 |ddv_scf|^2 =  0.129E-17

     End of self-consistent calculation

     Convergence has been achieved 
 
     Number of q in the star =    8
     List of q in the star:
          1   0.166666667   0.166666667  -0.166666667
          2   0.166666667  -0.166666667  -0.166666667
          3   0.166666667   0.166666667   0.166666667
          4  -0.166666667  -0.166666667   0.166666667
          5  -0.166666667   0.166666667  -0.166666667
          6  -0.166666667  -0.166666667  -0.166666667
          7  -0.166666667   0.166666667   0.166666667
          8   0.166666667  -0.166666667   0.166666667

     Diagonalizing the dynamical matrix

     q = (    0.166666667   0.166666667  -0.166666667 ) 

 **************************************************************************
     omega( 1) =       0.776196 [THz] =      25.891116 [cm-1]
     omega( 2) =       0.776196 [THz] =      25.891116 [cm-1]
     omega( 3) =       1.122424 [THz] =      37.440050 [cm-1]
     omega( 4) =       2.189788 [THz] =      73.043481 [cm-1]
     omega( 5) =       2.189788 [THz] =      73.043481 [cm-1]
     omega( 6) =       3.334334 [THz] =     111.221409 [cm-1]
 **************************************************************************

     Mode symmetry, C_3v (3m)   point group:

     omega(  1 -  2) =         25.9  [cm-1]   --> E    L_3           
     omega(  3 -  3) =         37.4  [cm-1]   --> A_1  L_1           
     omega(  4 -  5) =         73.0  [cm-1]   --> E    L_3           
     omega(  6 -  6) =        111.2  [cm-1]   --> A_1  L_1           

 **************************************************************************

     Calculation of q =    0.3333333   0.3333333  -0.3333333
 
     Parallelization info
     --------------------
     sticks:   dense  smooth     PW     G-vecs:    dense   smooth      PW
     Min         259     105     30                 9595     2422     386
     Max         260     106     31                 9597     2432     389
     Sum        3115    1261    367               115147    29123    4645
 


     bravais-lattice index     =            0
     lattice parameter (alat)  =      12.2892  a.u.
     unit-cell volume          =     463.9966 (a.u.)^3
     number of atoms/cell      =            2
     number of atomic types    =            2
     number of electrons       =        20.00
     number of Kohn-Sham states=           10
     kinetic-energy cutoff     =      60.0000  Ry
     charge density cutoff     =     600.0000  Ry
     Exchange-correlation      = PBESOL ( 1 410 8 0)
     EXX-fraction              =        0.00

     celldm(1)=  12.289237  celldm(2)=   0.000000  celldm(3)=   0.000000
     celldm(4)=   0.000000  celldm(5)=   0.000000  celldm(6)=   0.000000

     crystal axes: (cart. coord. in units of alat)
               a(1) = (   0.000000   0.500000   0.500000 )  
               a(2) = (   0.500000   0.000000   0.500000 )  
               a(3) = (   0.500000   0.500000   0.000000 )  

     reciprocal axes: (cart. coord. in units 2 pi/alat)
               b(1) = ( -1.000000  1.000000  1.000000 )  
               b(2) = (  1.000000 -1.000000  1.000000 )  
               b(3) = (  1.000000  1.000000 -1.000000 )  


     PseudoPot. # 1 for Pb read from file:
     /work/02599/asmiller/pseudo/gbrv/pbe_GBRV/pb_pbe_v1.uspp.F.UPF
     MD5 check sum: a5f44a0c8587cfbb5a05efeead6b9227
     Pseudo is Ultrasoft + core correction, Zval = 14.0
     Generated by new atomic code, or converted to UPF format
     Using radial grid of  899 points,  6 beta functions with: 
                l(1) =   0
                l(2) =   0
                l(3) =   1
                l(4) =   1
                l(5) =   2
                l(6) =   2
     Q(r) pseudized with  6 coefficients,  rinner =    1.000   1.000   1.000
                                                       1.000   1.000

     PseudoPot. # 2 for Te read from file:
     /work/02599/asmiller/pseudo/gbrv/pbe_GBRV/te_pbe_v1.uspp.F.UPF
     MD5 check sum: 749656373d74338a59c146dbd702c29e
     Pseudo is Ultrasoft + core correction, Zval =  6.0
     Generated by new atomic code, or converted to UPF format
     Using radial grid of  891 points,  5 beta functions with: 
                l(1) =   0
                l(2) =   0
                l(3) =   1
                l(4) =   1
                l(5) =   2
     Q(r) pseudized with  6 coefficients,  rinner =    1.800   1.800   1.800
                                                       1.800   1.800

     atomic species   valence    mass     pseudopotential
        Pb            14.00   207.20000     Pb( 1.00)
        Te             6.00   127.60000     Te( 1.00)

     48 Sym. Ops., with inversion, found



   Cartesian axes

     site n.     atom                  positions (alat units)
         1           Pb  tau(   1) = (   0.0000000   0.0000000   0.0000000  )
         2           Te  tau(   2) = (   0.5000000   0.5000000   0.5000000  )

     number of k points=   112

     Number of k-points >= 100: set verbosity='high' to print them.

     Dense  grid:   115147 G-vectors     FFT dimensions: (  72,  72,  72)

     Smooth grid:    29123 G-vectors     FFT dimensions: (  45,  45,  45)

     Largest allocated arrays     est. size (Mb)     dimensions
        Kohn-Sham Wavefunctions         0.05 Mb     (    313,   10)
        NL pseudopotentials             0.15 Mb     (    313,   31)
        Each V/rho on FFT grid          0.47 Mb     (  31104)
        Each G-vector array             0.07 Mb     (   9596)
        G-vector shells                 0.01 Mb     (    756)
     Largest temporary arrays     est. size (Mb)     dimensions
        Auxiliary wavefunctions         0.19 Mb     (    313,   40)
        Each subspace H/S matrix        0.02 Mb     (  40,  40)
        Each <psi_i|beta_j> matrix      0.00 Mb     (     31,   10)

     The potential is recalculated from file :
     ./_ph0/PbTe.save/charge-density.dat


     negative rho (up, down):  0.156E-01 0.000E+00
     Starting wfc are   13 atomic wfcs

     total cpu time spent up to now is       12.1 secs

     per-process dynamical memory:    71.8 Mb

     Band Structure Calculation
     Davidson diagonalization with overlap

     ethr =  5.00E-11,  avg # of iterations = 29.8

     total cpu time spent up to now is       22.5 secs

     End of band structure calculation

     Number of k-points >= 100: set verbosity='high' to print the bands.

     Writing output data file PbTe.save

                                                                                

     bravais-lattice index     =            0
     lattice parameter (alat)  =      12.2892  a.u.
     unit-cell volume          =     463.9966 (a.u.)^3
     number of atoms/cell      =            2
     number of atomic types    =            2
     kinetic-energy cut-off    =      60.0000  Ry
     charge density cut-off    =     600.0000  Ry
     convergence threshold     =      1.0E-16
     beta                      =       0.7000
     number of iterations used =            4
     Exchange-correlation      = PBESOL ( 1 410 8 0)
     EXX-fraction              =        0.00


     celldm(1)=   12.28924  celldm(2)=    0.00000  celldm(3)=    0.00000
     celldm(4)=    0.00000  celldm(5)=    0.00000  celldm(6)=    0.00000

     crystal axes: (cart. coord. in units of alat)
               a(1) = (  0.0000  0.5000  0.5000 )  
               a(2) = (  0.5000  0.0000  0.5000 )  
               a(3) = (  0.5000  0.5000  0.0000 )  

     reciprocal axes: (cart. coord. in units 2 pi/alat)
               b(1) = ( -1.0000  1.0000  1.0000 )  
               b(2) = (  1.0000 -1.0000  1.0000 )  
               b(3) = (  1.0000  1.0000 -1.0000 )  


     Atoms inside the unit cell: 

   Cartesian axes

     site n.  atom      mass           positions (alat units)
        1        Pb 207.2000   tau( 1) = (    0.00000    0.00000    0.00000  )
        2        Te 127.6000   tau( 2) = (    0.50000    0.50000    0.50000  )

     Computing dynamical matrix for 
                    q = (   0.3333333   0.3333333  -0.3333333 )
 
      6 Sym.Ops. (no q -> -q+G )


     G cutoff = 2295.3102  (   9596 G-vectors)     FFT grid: ( 72, 72, 72)
     G cutoff =  918.1241  (   2430 G-vectors)  smooth grid: ( 45, 45, 45)
     number of k points=   112

     PseudoPot. # 1 for Pb read from file:
     /work/02599/asmiller/pseudo/gbrv/pbe_GBRV/pb_pbe_v1.uspp.F.UPF
     MD5 check sum: a5f44a0c8587cfbb5a05efeead6b9227
     Pseudo is Ultrasoft + core correction, Zval = 14.0
     Generated by new atomic code, or converted to UPF format
     Using radial grid of  899 points,  6 beta functions with: 
                l(1) =   0
                l(2) =   0
                l(3) =   1
                l(4) =   1
                l(5) =   2
                l(6) =   2
     Q(r) pseudized with  6 coefficients,  rinner =    1.000   1.000   1.000
                                                       1.000   1.000

     PseudoPot. # 2 for Te read from file:
     /work/02599/asmiller/pseudo/gbrv/pbe_GBRV/te_pbe_v1.uspp.F.UPF
     MD5 check sum: 749656373d74338a59c146dbd702c29e
     Pseudo is Ultrasoft + core correction, Zval =  6.0
     Generated by new atomic code, or converted to UPF format
     Using radial grid of  891 points,  5 beta functions with: 
                l(1) =   0
                l(2) =   0
                l(3) =   1
                l(4) =   1
                l(5) =   2
     Q(r) pseudized with  6 coefficients,  rinner =    1.800   1.800   1.800
                                                       1.800   1.800


     Atomic displacements:
     There are   4 irreducible representations

     Representation     1      1 modes -A_1  L_1 To be done

     Representation     2      1 modes -A_1  L_1 To be done

     Representation     3      2 modes -E    L_3 To be done

     Representation     4      2 modes -E    L_3 To be done



     Alpha used in Ewald sum =   2.8000

     negative rho (up, down):  0.156E-01 0.000E+00
     PHONON       :  6m 6.43s CPU     6m25.57s WALL



     Representation #  1 mode #   1

     Self-consistent Calculation

      iter #   1 total cpu time :   387.6 secs   av.it.:   5.6
      thresh= 0.100E-01 alpha_mix =  0.700 |ddv_scf|^2 =  0.408E-04

      iter #   2 total cpu time :   391.7 secs   av.it.:  14.9
      thresh= 0.639E-03 alpha_mix =  0.700 |ddv_scf|^2 =  0.810E-03

      iter #   3 total cpu time :   395.2 secs   av.it.:  12.0
      thresh= 0.285E-02 alpha_mix =  0.700 |ddv_scf|^2 =  0.347E-06

      iter #   4 total cpu time :   399.4 secs   av.it.:  15.6
      thresh= 0.589E-04 alpha_mix =  0.700 |ddv_scf|^2 =  0.174E-07

      iter #   5 total cpu time :   403.6 secs   av.it.:  15.1
      thresh= 0.132E-04 alpha_mix =  0.700 |ddv_scf|^2 =  0.326E-09

      iter #   6 total cpu time :   407.8 secs   av.it.:  15.3
      thresh= 0.181E-05 alpha_mix =  0.700 |ddv_scf|^2 =  0.339E-10

      iter #   7 total cpu time :   412.0 secs   av.it.:  15.2
      thresh= 0.582E-06 alpha_mix =  0.700 |ddv_scf|^2 =  0.228E-12

      iter #   8 total cpu time :   416.5 secs   av.it.:  16.4
      thresh= 0.477E-07 alpha_mix =  0.700 |ddv_scf|^2 =  0.833E-13

      iter #   9 total cpu time :   422.1 secs   av.it.:  15.8
      thresh= 0.289E-07 alpha_mix =  0.700 |ddv_scf|^2 =  0.154E-13

      iter #  10 total cpu time :   426.1 secs   av.it.:  14.6
      thresh= 0.124E-07 alpha_mix =  0.700 |ddv_scf|^2 =  0.147E-14

      iter #  11 total cpu time :   430.7 secs   av.it.:  15.2
      thresh= 0.384E-08 alpha_mix =  0.700 |ddv_scf|^2 =  0.167E-14

      iter #  12 total cpu time :   434.6 secs   av.it.:  13.9
      thresh= 0.409E-08 alpha_mix =  0.700 |ddv_scf|^2 =  0.181E-15

      iter #  13 total cpu time :   438.7 secs   av.it.:  14.8
      thresh= 0.134E-08 alpha_mix =  0.700 |ddv_scf|^2 =  0.267E-16

     End of self-consistent calculation

     Convergence has been achieved 


     Representation #  2 mode #   2

     Self-consistent Calculation

      iter #   1 total cpu time :   441.9 secs   av.it.:  10.1
      thresh= 0.100E-01 alpha_mix =  0.700 |ddv_scf|^2 =  0.243E-03

      iter #   2 total cpu time :   446.1 secs   av.it.:  15.0
      thresh= 0.156E-02 alpha_mix =  0.700 |ddv_scf|^2 =  0.483E-02

      iter #   3 total cpu time :   449.5 secs   av.it.:  11.8
      thresh= 0.695E-02 alpha_mix =  0.700 |ddv_scf|^2 =  0.401E-05

      iter #   4 total cpu time :   453.7 secs   av.it.:  15.3
      thresh= 0.200E-03 alpha_mix =  0.700 |ddv_scf|^2 =  0.126E-06

      iter #   5 total cpu time :   457.8 secs   av.it.:  14.6
      thresh= 0.356E-04 alpha_mix =  0.700 |ddv_scf|^2 =  0.979E-08

      iter #   6 total cpu time :   462.0 secs   av.it.:  15.3
      thresh= 0.990E-05 alpha_mix =  0.700 |ddv_scf|^2 =  0.266E-09

      iter #   7 total cpu time :   466.2 secs   av.it.:  15.1
      thresh= 0.163E-05 alpha_mix =  0.700 |ddv_scf|^2 =  0.569E-11

      iter #   8 total cpu time :   470.4 secs   av.it.:  15.4
      thresh= 0.239E-06 alpha_mix =  0.700 |ddv_scf|^2 =  0.111E-12

      iter #   9 total cpu time :   474.7 secs   av.it.:  15.5
      thresh= 0.333E-07 alpha_mix =  0.700 |ddv_scf|^2 =  0.732E-13

      iter #  10 total cpu time :   478.7 secs   av.it.:  14.5
      thresh= 0.271E-07 alpha_mix =  0.700 |ddv_scf|^2 =  0.380E-13

      iter #  11 total cpu time :   482.7 secs   av.it.:  14.4
      thresh= 0.195E-07 alpha_mix =  0.700 |ddv_scf|^2 =  0.156E-14

      iter #  12 total cpu time :   487.0 secs   av.it.:  15.4
      thresh= 0.396E-08 alpha_mix =  0.700 |ddv_scf|^2 =  0.334E-14

      iter #  13 total cpu time :   490.8 secs   av.it.:  13.6
      thresh= 0.578E-08 alpha_mix =  0.700 |ddv_scf|^2 =  0.169E-16

     End of self-consistent calculation

     Convergence has been achieved 


     Representation #  3 modes #   3  4

     Self-consistent Calculation

      iter #   1 total cpu time :   494.5 secs   av.it.:   4.4
      thresh= 0.100E-01 alpha_mix =  0.700 |ddv_scf|^2 =  0.191E-07

      iter #   2 total cpu time :   503.6 secs   av.it.:  17.0
      thresh= 0.138E-04 alpha_mix =  0.700 |ddv_scf|^2 =  0.206E-08

      iter #   3 total cpu time :   512.9 secs   av.it.:  17.6
      thresh= 0.454E-05 alpha_mix =  0.700 |ddv_scf|^2 =  0.933E-10

      iter #   4 total cpu time :   522.4 secs   av.it.:  17.9
      thresh= 0.966E-06 alpha_mix =  0.700 |ddv_scf|^2 =  0.107E-10

      iter #   5 total cpu time :   531.7 secs   av.it.:  17.5
      thresh= 0.327E-06 alpha_mix =  0.700 |ddv_scf|^2 =  0.648E-13

      iter #   6 total cpu time :   541.1 secs   av.it.:  17.8
      thresh= 0.255E-07 alpha_mix =  0.700 |ddv_scf|^2 =  0.114E-14

      iter #   7 total cpu time :   550.4 secs   av.it.:  17.5
      thresh= 0.337E-08 alpha_mix =  0.700 |ddv_scf|^2 =  0.333E-16

     End of self-consistent calculation

     Convergence has been achieved 


     Representation #  4 modes #   5  6

     Self-consistent Calculation

      iter #   1 total cpu time :   556.3 secs   av.it.:   9.1
      thresh= 0.100E-01 alpha_mix =  0.700 |ddv_scf|^2 =  0.887E-06

      iter #   2 total cpu time :   565.8 secs   av.it.:  17.8
      thresh= 0.942E-04 alpha_mix =  0.700 |ddv_scf|^2 =  0.331E-06

      iter #   3 total cpu time :   575.0 secs   av.it.:  17.2
      thresh= 0.575E-04 alpha_mix =  0.700 |ddv_scf|^2 =  0.187E-09

      iter #   4 total cpu time :   584.6 secs   av.it.:  18.2
      thresh= 0.137E-05 alpha_mix =  0.700 |ddv_scf|^2 =  0.156E-10

      iter #   5 total cpu time :   594.2 secs   av.it.:  18.1
      thresh= 0.394E-06 alpha_mix =  0.700 |ddv_scf|^2 =  0.712E-12

      iter #   6 total cpu time :   603.5 secs   av.it.:  17.5
      thresh= 0.844E-07 alpha_mix =  0.700 |ddv_scf|^2 =  0.310E-14

      iter #   7 total cpu time :   612.7 secs   av.it.:  17.3
      thresh= 0.557E-08 alpha_mix =  0.700 |ddv_scf|^2 =  0.149E-15

      iter #   8 total cpu time :   622.0 secs   av.it.:  17.5
      thresh= 0.122E-08 alpha_mix =  0.700 |ddv_scf|^2 =  0.319E-17

     End of self-consistent calculation

     Convergence has been achieved 
 
     Number of q in the star =    8
     List of q in the star:
          1   0.333333333   0.333333333  -0.333333333
          2   0.333333333  -0.333333333  -0.333333333
          3   0.333333333   0.333333333   0.333333333
          4  -0.333333333  -0.333333333   0.333333333
          5  -0.333333333   0.333333333  -0.333333333
          6  -0.333333333  -0.333333333  -0.333333333
          7  -0.333333333   0.333333333   0.333333333
          8   0.333333333  -0.333333333   0.333333333

     Diagonalizing the dynamical matrix

     q = (    0.333333333   0.333333333  -0.333333333 ) 

 **************************************************************************
     omega( 1) =       1.359275 [THz] =      45.340533 [cm-1]
     omega( 2) =       1.359275 [THz] =      45.340533 [cm-1]
     omega( 3) =       2.056273 [THz] =      68.589892 [cm-1]
     omega( 4) =       2.674205 [THz] =      89.201875 [cm-1]
     omega( 5) =       2.674205 [THz] =      89.201875 [cm-1]
     omega( 6) =       3.332410 [THz] =     111.157231 [cm-1]
 **************************************************************************

     Mode symmetry, C_3v (3m)   point group:

     omega(  1 -  2) =         45.3  [cm-1]   --> E    L_3           
     omega(  3 -  3) =         68.6  [cm-1]   --> A_1  L_1           
     omega(  4 -  5) =         89.2  [cm-1]   --> E    L_3           
     omega(  6 -  6) =        111.2  [cm-1]   --> A_1  L_1           

 **************************************************************************

     Calculation of q =   -0.5000000  -0.5000000   0.5000000
 
     Parallelization info
     --------------------
     sticks:   dense  smooth     PW     G-vecs:    dense   smooth      PW
     Min         259     105     33                 9595     2422     444
     Max         260     106     36                 9597     2432     445
     Sum        3115    1261    409               115147    29123    5329
 


     bravais-lattice index     =            0
     lattice parameter (alat)  =      12.2892  a.u.
     unit-cell volume          =     463.9966 (a.u.)^3
     number of atoms/cell      =            2
     number of atomic types    =            2
     number of electrons       =        20.00
     number of Kohn-Sham states=           10
     kinetic-energy cutoff     =      60.0000  Ry
     charge density cutoff     =     600.0000  Ry
     Exchange-correlation      = PBESOL ( 1 410 8 0)
     EXX-fraction              =        0.00

     celldm(1)=  12.289237  celldm(2)=   0.000000  celldm(3)=   0.000000
     celldm(4)=   0.000000  celldm(5)=   0.000000  celldm(6)=   0.000000

     crystal axes: (cart. coord. in units of alat)
               a(1) = (   0.000000   0.500000   0.500000 )  
               a(2) = (   0.500000   0.000000   0.500000 )  
               a(3) = (   0.500000   0.500000   0.000000 )  

     reciprocal axes: (cart. coord. in units 2 pi/alat)
               b(1) = ( -1.000000  1.000000  1.000000 )  
               b(2) = (  1.000000 -1.000000  1.000000 )  
               b(3) = (  1.000000  1.000000 -1.000000 )  


     PseudoPot. # 1 for Pb read from file:
     /work/02599/asmiller/pseudo/gbrv/pbe_GBRV/pb_pbe_v1.uspp.F.UPF
     MD5 check sum: a5f44a0c8587cfbb5a05efeead6b9227
     Pseudo is Ultrasoft + core correction, Zval = 14.0
     Generated by new atomic code, or converted to UPF format
     Using radial grid of  899 points,  6 beta functions with: 
                l(1) =   0
                l(2) =   0
                l(3) =   1
                l(4) =   1
                l(5) =   2
                l(6) =   2
     Q(r) pseudized with  6 coefficients,  rinner =    1.000   1.000   1.000
                                                       1.000   1.000

     PseudoPot. # 2 for Te read from file:
     /work/02599/asmiller/pseudo/gbrv/pbe_GBRV/te_pbe_v1.uspp.F.UPF
     MD5 check sum: 749656373d74338a59c146dbd702c29e
     Pseudo is Ultrasoft + core correction, Zval =  6.0
     Generated by new atomic code, or converted to UPF format
     Using radial grid of  891 points,  5 beta functions with: 
                l(1) =   0
                l(2) =   0
                l(3) =   1
                l(4) =   1
                l(5) =   2
     Q(r) pseudized with  6 coefficients,  rinner =    1.800   1.800   1.800
                                                       1.800   1.800

     atomic species   valence    mass     pseudopotential
        Pb            14.00   207.20000     Pb( 1.00)
        Te             6.00   127.60000     Te( 1.00)

     48 Sym. Ops., with inversion, found



   Cartesian axes

     site n.     atom                  positions (alat units)
         1           Pb  tau(   1) = (   0.0000000   0.0000000   0.0000000  )
         2           Te  tau(   2) = (   0.5000000   0.5000000   0.5000000  )

     number of k points=    64
                       cart. coord. in units 2pi/alat
        k(    1) = (   0.0000000   0.0000000   0.0000000), wk =   0.0092593
        k(    2) = (  -0.5000000  -0.5000000   0.5000000), wk =   0.0000000
        k(    3) = (   0.1666667   0.1666667  -0.1666667), wk =   0.0185185
        k(    4) = (  -0.3333333  -0.3333333   0.3333333), wk =   0.0000000
        k(    5) = (   0.3333333   0.3333333  -0.3333333), wk =   0.0185185
        k(    6) = (  -0.1666667  -0.1666667   0.1666667), wk =   0.0000000
        k(    7) = (  -0.5000000  -0.5000000   0.5000000), wk =   0.0092593
        k(    8) = (  -1.0000000  -1.0000000   1.0000000), wk =   0.0000000
        k(    9) = (   0.3333333   0.0000000   0.0000000), wk =   0.0555556
        k(   10) = (  -0.1666667  -0.5000000   0.5000000), wk =   0.0000000
        k(   11) = (   0.5000000   0.1666667  -0.1666667), wk =   0.0555556
        k(   12) = (   0.0000000  -0.3333333   0.3333333), wk =   0.0000000
        k(   13) = (  -0.3333333  -0.6666667   0.6666667), wk =   0.0555556
        k(   14) = (  -0.8333333  -1.1666667   1.1666667), wk =   0.0000000
        k(   15) = (  -0.1666667  -0.5000000   0.5000000), wk =   0.0555556
        k(   16) = (  -0.6666667  -1.0000000   1.0000000), wk =   0.0000000
        k(   17) = (   0.0000000  -0.3333333   0.3333333), wk =   0.0555556
        k(   18) = (  -0.5000000  -0.8333333   0.8333333), wk =   0.0000000
        k(   19) = (   0.6666667   0.0000000   0.0000000), wk =   0.0555556
        k(   20) = (   0.1666667  -0.5000000   0.5000000), wk =   0.0000000
        k(   21) = (  -0.1666667  -0.8333333   0.8333333), wk =   0.0555556
        k(   22) = (  -0.6666667  -1.3333333   1.3333333), wk =   0.0000000
        k(   23) = (   0.0000000  -0.6666667   0.6666667), wk =   0.0555556
        k(   24) = (  -0.5000000  -1.1666667   1.1666667), wk =   0.0000000
        k(   25) = (  -1.0000000   0.0000000   0.0000000), wk =   0.0277778
        k(   26) = (  -1.5000000  -0.5000000   0.5000000), wk =   0.0000000
        k(   27) = (  -0.3333333  -0.6666667   1.0000000), wk =   0.1111111
        k(   28) = (  -0.8333333  -1.1666667   1.5000000), wk =   0.0000000
        k(   29) = (  -0.1666667  -0.5000000   0.8333333), wk =   0.0555556
        k(   30) = (  -0.6666667  -1.0000000   1.3333333), wk =   0.0000000
        k(   31) = (  -1.0000000   0.3333333   0.0000000), wk =   0.1111111
        k(   32) = (  -1.5000000  -0.1666667   0.5000000), wk =   0.0000000
        k(   33) = (   0.1666667  -0.1666667  -0.1666667), wk =   0.0555556
        k(   34) = (  -0.3333333  -0.6666667   0.3333333), wk =   0.0000000
        k(   35) = (   0.3333333  -0.3333333  -0.3333333), wk =   0.0555556
        k(   36) = (  -0.1666667  -0.8333333   0.1666667), wk =   0.0000000
        k(   37) = (  -0.5000000   0.5000000   0.5000000), wk =   0.0277778
        k(   38) = (  -1.0000000   0.0000000   1.0000000), wk =   0.0000000
        k(   39) = (   0.5000000  -0.1666667  -0.1666667), wk =   0.1111111
        k(   40) = (   0.0000000  -0.6666667   0.3333333), wk =   0.0000000
        k(   41) = (  -0.1666667  -0.1666667  -0.5000000), wk =   0.0555556
        k(   42) = (  -0.6666667  -0.6666667   0.0000000), wk =   0.0000000
        k(   43) = (  -0.3333333   0.6666667   0.6666667), wk =   0.1111111
        k(   44) = (  -0.8333333   0.1666667   1.1666667), wk =   0.0000000
        k(   45) = (   0.6666667   0.6666667   0.3333333), wk =   0.0555556
        k(   46) = (   0.1666667   0.1666667   0.8333333), wk =   0.0000000
        k(   47) = (  -0.1666667   0.5000000   0.5000000), wk =   0.1111111
        k(   48) = (  -0.6666667   0.0000000   1.0000000), wk =   0.0000000
        k(   49) = (   0.5000000   0.5000000   0.1666667), wk =   0.0555556
        k(   50) = (   0.0000000   0.0000000   0.6666667), wk =   0.0000000
        k(   51) = (   0.0000000   0.3333333   0.3333333), wk =   0.0555556
        k(   52) = (  -0.5000000  -0.1666667   0.8333333), wk =   0.0000000
        k(   53) = (  -0.1666667   0.8333333   0.8333333), wk =   0.1111111
        k(   54) = (  -0.6666667   0.3333333   1.3333333), wk =   0.0000000
        k(   55) = (   0.8333333   0.8333333   0.1666667), wk =   0.0555556
        k(   56) = (   0.3333333   0.3333333   0.6666667), wk =   0.0000000
        k(   57) = (   0.0000000   0.6666667   0.6666667), wk =   0.0555556
        k(   58) = (  -0.5000000   0.1666667   1.1666667), wk =   0.0000000
        k(   59) = (  -0.3333333   0.6666667   1.0000000), wk =   0.1111111
        k(   60) = (  -0.8333333   0.1666667   1.5000000), wk =   0.0000000
        k(   61) = (  -0.1666667   0.5000000   0.8333333), wk =   0.0555556
        k(   62) = (  -0.6666667   0.0000000   1.3333333), wk =   0.0000000
        k(   63) = (   0.1666667  -0.8333333  -0.5000000), wk =   0.1111111
        k(   64) = (  -0.3333333  -1.3333333   0.0000000), wk =   0.0000000

     Dense  grid:   115147 G-vectors     FFT dimensions: (  72,  72,  72)

     Smooth grid:    29123 G-vectors     FFT dimensions: (  45,  45,  45)

     Largest allocated arrays     est. size (Mb)     dimensions
        Kohn-Sham Wavefunctions         0.05 Mb     (    319,   10)
        NL pseudopotentials             0.15 Mb     (    319,   31)
        Each V/rho on FFT grid          0.47 Mb     (  31104)
        Each G-vector array             0.07 Mb     (   9596)
        G-vector shells                 0.01 Mb     (    755)
     Largest temporary arrays     est. size (Mb)     dimensions
        Auxiliary wavefunctions         0.19 Mb     (    319,   40)
        Each subspace H/S matrix        0.02 Mb     (  40,  40)
        Each <psi_i|beta_j> matrix      0.00 Mb     (     31,   10)

     The potential is recalculated from file :
     ./_ph0/PbTe.save/charge-density.dat


     negative rho (up, down):  0.156E-01 0.000E+00
     Starting wfc are   13 atomic wfcs

     total cpu time spent up to now is       23.5 secs

     per-process dynamical memory:    71.8 Mb

     Band Structure Calculation
     Davidson diagonalization with overlap

     ethr =  5.00E-11,  avg # of iterations = 28.9

     total cpu time spent up to now is       29.4 secs

     End of band structure calculation

          k = 0.0000 0.0000 0.0000 (  3695 PWs)   bands (ev):

    -9.5621  -9.5621  -9.5526  -9.5526  -9.5526  -4.8174   1.4018   5.7890
     5.7890   5.7890

          k =-0.5000-0.5000 0.5000 (  3648 PWs)   bands (ev):

    -9.5746  -9.5746  -9.5500  -9.5357  -9.5357  -3.4156  -1.4572   6.2346
     6.2346   7.0516

          k = 0.1667 0.1667-0.1667 (  3656 PWs)   bands (ev):

    -9.5648  -9.5648  -9.5518  -9.5488  -9.5488  -4.5858   0.7169   5.8559
     5.8559   6.1362

          k =-0.3333-0.3333 0.3333 (  3651 PWs)   bands (ev):

    -9.5713  -9.5713  -9.5506  -9.5402  -9.5402  -3.9546  -0.6223   6.0622
     6.0622   6.6712

          k = 0.3333 0.3333-0.3333 (  3651 PWs)   bands (ev):

    -9.5713  -9.5713  -9.5506  -9.5402  -9.5402  -3.9546  -0.6223   6.0622
     6.0622   6.6712

          k =-0.1667-0.1667 0.1667 (  3656 PWs)   bands (ev):

    -9.5648  -9.5648  -9.5518  -9.5488  -9.5488  -4.5858   0.7169   5.8559
     5.8559   6.1362

          k =-0.5000-0.5000 0.5000 (  3648 PWs)   bands (ev):

    -9.5746  -9.5746  -9.5500  -9.5357  -9.5357  -3.4156  -1.4572   6.2346
     6.2346   7.0516

          k =-1.0000-1.0000 1.0000 (  3695 PWs)   bands (ev):

    -9.5621  -9.5621  -9.5526  -9.5526  -9.5526  -4.8174   1.4018   5.7890
     5.7890   5.7890

          k = 0.3333 0.0000 0.0000 (  3651 PWs)   bands (ev):

    -9.5719  -9.5594  -9.5549  -9.5466  -9.5466  -4.5099   0.6762   5.3612
     5.3612   6.7458

          k =-0.1667-0.5000 0.5000 (  3647 PWs)   bands (ev):

    -9.5780  -9.5716  -9.5475  -9.5390  -9.5386  -3.5555  -0.9879   4.4685
     6.0841   6.5209

          k = 0.5000 0.1667-0.1667 (  3627 PWs)   bands (ev):

    -9.5816  -9.5619  -9.5541  -9.5412  -9.5386  -4.0158  -0.1987   5.1993
     5.2607   5.8948

          k = 0.0000-0.3333 0.3333 (  3641 PWs)   bands (ev):

    -9.5697  -9.5681  -9.5508  -9.5460  -9.5421  -4.2187   0.0038   4.8799
     6.3338   6.8653

          k =-0.3333-0.6667 0.6667 (  3646 PWs)   bands (ev):

    -9.5845  -9.5683  -9.5491  -9.5389  -9.5343  -3.3761  -1.1879   4.7964
     5.4768   5.8077

          k =-0.8333-1.1667 1.1667 (  3656 PWs)   bands (ev):

    -9.5648  -9.5648  -9.5518  -9.5488  -9.5488  -4.5858   0.7169   5.8559
     5.8559   6.1362

          k =-0.1667-0.5000 0.5000 (  3647 PWs)   bands (ev):

    -9.5780  -9.5716  -9.5475  -9.5390  -9.5386  -3.5555  -0.9879   4.4685
     6.0841   6.5209

          k =-0.6667-1.0000 1.0000 (  3651 PWs)   bands (ev):

    -9.5719  -9.5594  -9.5549  -9.5466  -9.5466  -4.5099   0.6762   5.3612
     5.3612   6.7458

          k = 0.0000-0.3333 0.3333 (  3641 PWs)   bands (ev):

    -9.5697  -9.5681  -9.5508  -9.5460  -9.5421  -4.2187   0.0038   4.8799
     6.3338   6.8653

          k =-0.5000-0.8333 0.8333 (  3627 PWs)   bands (ev):

    -9.5816  -9.5619  -9.5541  -9.5412  -9.5386  -4.0158  -0.1987   5.1993
     5.2607   5.8948

          k = 0.6667 0.0000 0.0000 (  3631 PWs)   bands (ev):

    -9.6004  -9.5596  -9.5541  -9.5342  -9.5342  -3.7199  -0.1074   4.2307
     4.6556   4.6556

          k = 0.1667-0.5000 0.5000 (  3647 PWs)   bands (ev):

    -9.5780  -9.5716  -9.5475  -9.5390  -9.5386  -3.5555  -0.9879   4.4685
     6.0841   6.5209

          k =-0.1667-0.8333 0.8333 (  3652 PWs)   bands (ev):

    -9.6069  -9.5572  -9.5566  -9.5324  -9.5305  -3.2609  -0.5913   3.2709
     4.6518   4.7610

          k =-0.6667-1.3333 1.3333 (  3651 PWs)   bands (ev):

    -9.5713  -9.5713  -9.5506  -9.5402  -9.5402  -3.9546  -0.6223   6.0622
     6.0622   6.6712

          k = 0.0000-0.6667 0.6667 (  3627 PWs)   bands (ev):

    -9.5953  -9.5644  -9.5480  -9.5385  -9.5336  -3.1336  -1.0585   3.3240
     5.1998   5.4468

          k =-0.5000-1.1667 1.1667 (  3627 PWs)   bands (ev):

    -9.5816  -9.5619  -9.5541  -9.5412  -9.5386  -4.0158  -0.1987   5.1993
     5.2607   5.8948

          k =-1.0000 0.0000 0.0000 (  3612 PWs)   bands (ev):

    -9.6186  -9.5619  -9.5514  -9.5278  -9.5278  -3.1845  -0.2395   2.6681
     4.3539   4.3539

          k =-1.5000-0.5000 0.5000 (  3648 PWs)   bands (ev):

    -9.5746  -9.5746  -9.5500  -9.5357  -9.5357  -3.4156  -1.4572   6.2346
     6.2346   7.0516

          k =-0.3333-0.6667 1.0000 (  3628 PWs)   bands (ev):

    -9.5916  -9.5629  -9.5523  -9.5377  -9.5345  -3.5013  -0.6990   4.1244
     4.5239   6.1244

          k =-0.8333-1.1667 1.5000 (  3627 PWs)   bands (ev):

    -9.5816  -9.5619  -9.5541  -9.5412  -9.5386  -4.0158  -0.1987   5.1993
     5.2607   5.8948

          k =-0.1667-0.5000 0.8333 (  3630 PWs)   bands (ev):

    -9.5948  -9.5652  -9.5455  -9.5433  -9.5310  -3.1329  -1.0634   3.8293
     3.9342   6.6755

          k =-0.6667-1.0000 1.3333 (  3641 PWs)   bands (ev):

    -9.5697  -9.5681  -9.5508  -9.5460  -9.5421  -4.2187   0.0038   4.8799
     6.3338   6.8653

          k =-1.0000 0.3333 0.0000 (  3652 PWs)   bands (ev):

    -9.6068  -9.5589  -9.5537  -9.5367  -9.5278  -3.0716  -0.7420   2.9977
     3.8100   5.8490

          k =-1.5000-0.1667 0.5000 (  3647 PWs)   bands (ev):

    -9.5780  -9.5716  -9.5475  -9.5390  -9.5386  -3.5555  -0.9879   4.4685
     6.0841   6.5209

          k = 0.1667-0.1667-0.1667 (  3656 PWs)   bands (ev):

    -9.5648  -9.5648  -9.5518  -9.5488  -9.5488  -4.5858   0.7169   5.8559
     5.8559   6.1362

          k =-0.3333-0.6667 0.3333 (  3646 PWs)   bands (ev):

    -9.5845  -9.5683  -9.5491  -9.5389  -9.5343  -3.3761  -1.1879   4.7964
     5.4768   5.8077

          k = 0.3333-0.3333-0.3333 (  3651 PWs)   bands (ev):

    -9.5713  -9.5713  -9.5506  -9.5402  -9.5402  -3.9546  -0.6223   6.0622
     6.0622   6.6712

          k =-0.1667-0.8333 0.1667 (  3652 PWs)   bands (ev):

    -9.6069  -9.5572  -9.5566  -9.5324  -9.5305  -3.2609  -0.5913   3.2709
     4.6518   4.7610

          k =-0.5000 0.5000 0.5000 (  3648 PWs)   bands (ev):

    -9.5746  -9.5746  -9.5500  -9.5357  -9.5357  -3.4156  -1.4572   6.2346
     6.2346   7.0516

          k =-1.0000 0.0000 1.0000 (  3612 PWs)   bands (ev):

    -9.6186  -9.5619  -9.5514  -9.5278  -9.5278  -3.1845  -0.2395   2.6681
     4.3539   4.3539

          k = 0.5000-0.1667-0.1667 (  3627 PWs)   bands (ev):

    -9.5816  -9.5619  -9.5541  -9.5412  -9.5386  -4.0158  -0.1987   5.1993
     5.2607   5.8948

          k = 0.0000-0.6667 0.3333 (  3628 PWs)   bands (ev):

    -9.5916  -9.5629  -9.5523  -9.5377  -9.5345  -3.5013  -0.6990   4.1244
     4.5239   6.1244

          k =-0.1667-0.1667-0.5000 (  3627 PWs)   bands (ev):

    -9.5816  -9.5619  -9.5541  -9.5412  -9.5386  -4.0158  -0.1987   5.1993
     5.2607   5.8948

          k =-0.6667-0.6667 0.0000 (  3627 PWs)   bands (ev):

    -9.5953  -9.5644  -9.5480  -9.5385  -9.5336  -3.1336  -1.0585   3.3240
     5.1998   5.4468

          k =-0.3333 0.6667 0.6667 (  3646 PWs)   bands (ev):

    -9.5845  -9.5683  -9.5491  -9.5389  -9.5343  -3.3761  -1.1879   4.7964
     5.4768   5.8077

          k =-0.8333 0.1667 1.1667 (  3652 PWs)   bands (ev):

    -9.6069  -9.5572  -9.5566  -9.5324  -9.5305  -3.2609  -0.5913   3.2709
     4.6518   4.7610

          k = 0.6667 0.6667 0.3333 (  3646 PWs)   bands (ev):

    -9.5845  -9.5683  -9.5491  -9.5389  -9.5343  -3.3761  -1.1879   4.7964
     5.4768   5.8077

          k = 0.1667 0.1667 0.8333 (  3652 PWs)   bands (ev):

    -9.6069  -9.5572  -9.5566  -9.5324  -9.5305  -3.2609  -0.5913   3.2709
     4.6518   4.7610

          k =-0.1667 0.5000 0.5000 (  3647 PWs)   bands (ev):

    -9.5780  -9.5716  -9.5475  -9.5390  -9.5386  -3.5555  -0.9879   4.4685
     6.0841   6.5209

          k =-0.6667 0.0000 1.0000 (  3652 PWs)   bands (ev):

    -9.6068  -9.5589  -9.5537  -9.5367  -9.5278  -3.0716  -0.7420   2.9977
     3.8100   5.8490

          k = 0.5000 0.5000 0.1667 (  3647 PWs)   bands (ev):

    -9.5780  -9.5716  -9.5475  -9.5390  -9.5386  -3.5555  -0.9879   4.4685
     6.0841   6.5209

          k = 0.0000 0.0000 0.6667 (  3631 PWs)   bands (ev):

    -9.6004  -9.5596  -9.5541  -9.5342  -9.5342  -3.7199  -0.1074   4.2307
     4.6556   4.6556

          k = 0.0000 0.3333 0.3333 (  3641 PWs)   bands (ev):

    -9.5697  -9.5681  -9.5508  -9.5460  -9.5421  -4.2187   0.0038   4.8799
     6.3338   6.8653

          k =-0.5000-0.1667 0.8333 (  3630 PWs)   bands (ev):

    -9.5948  -9.5652  -9.5455  -9.5433  -9.5310  -3.1329  -1.0634   3.8293
     3.9342   6.6755

          k =-0.1667 0.8333 0.8333 (  3652 PWs)   bands (ev):

    -9.6069  -9.5572  -9.5566  -9.5324  -9.5305  -3.2609  -0.5913   3.2709
     4.6518   4.7610

          k =-0.6667 0.3333 1.3333 (  3646 PWs)   bands (ev):

    -9.5845  -9.5683  -9.5491  -9.5389  -9.5343  -3.3761  -1.1879   4.7964
     5.4768   5.8077

          k = 0.8333 0.8333 0.1667 (  3652 PWs)   bands (ev):

    -9.6069  -9.5572  -9.5566  -9.5324  -9.5305  -3.2609  -0.5913   3.2709
     4.6518   4.7610

          k = 0.3333 0.3333 0.6667 (  3646 PWs)   bands (ev):

    -9.5845  -9.5683  -9.5491  -9.5389  -9.5343  -3.3761  -1.1879   4.7964
     5.4768   5.8077

          k = 0.0000 0.6667 0.6667 (  3627 PWs)   bands (ev):

    -9.5953  -9.5644  -9.5480  -9.5385  -9.5336  -3.1336  -1.0585   3.3240
     5.1998   5.4468

          k =-0.5000 0.1667 1.1667 (  3630 PWs)   bands (ev):

    -9.5948  -9.5652  -9.5455  -9.5433  -9.5310  -3.1329  -1.0634   3.8293
     3.9342   6.6755

          k =-0.3333 0.6667 1.0000 (  3628 PWs)   bands (ev):

    -9.5916  -9.5629  -9.5523  -9.5377  -9.5345  -3.5013  -0.6990   4.1244
     4.5239   6.1244

          k =-0.8333 0.1667 1.5000 (  3630 PWs)   bands (ev):

    -9.5948  -9.5652  -9.5455  -9.5433  -9.5310  -3.1329  -1.0634   3.8293
     3.9342   6.6755

          k =-0.1667 0.5000 0.8333 (  3630 PWs)   bands (ev):

    -9.5948  -9.5652  -9.5455  -9.5433  -9.5310  -3.1329  -1.0634   3.8293
     3.9342   6.6755

          k =-0.6667 0.0000 1.3333 (  3627 PWs)   bands (ev):

    -9.5953  -9.5644  -9.5480  -9.5385  -9.5336  -3.1336  -1.0585   3.3240
     5.1998   5.4468

          k = 0.1667-0.8333-0.5000 (  3630 PWs)   bands (ev):

    -9.5948  -9.5652  -9.5455  -9.5433  -9.5310  -3.1329  -1.0634   3.8293
     3.9342   6.6755

          k =-0.3333-1.3333 0.0000 (  3628 PWs)   bands (ev):

    -9.5916  -9.5629  -9.5523  -9.5377  -9.5345  -3.5013  -0.6990   4.1244
     4.5239   6.1244

     Writing output data file PbTe.save

                                                                                

     bravais-lattice index     =            0
     lattice parameter (alat)  =      12.2892  a.u.
     unit-cell volume          =     463.9966 (a.u.)^3
     number of atoms/cell      =            2
     number of atomic types    =            2
     kinetic-energy cut-off    =      60.0000  Ry
     charge density cut-off    =     600.0000  Ry
     convergence threshold     =      1.0E-16
     beta                      =       0.7000
     number of iterations used =            4
     Exchange-correlation      = PBESOL ( 1 410 8 0)
     EXX-fraction              =        0.00


     celldm(1)=   12.28924  celldm(2)=    0.00000  celldm(3)=    0.00000
     celldm(4)=    0.00000  celldm(5)=    0.00000  celldm(6)=    0.00000

     crystal axes: (cart. coord. in units of alat)
               a(1) = (  0.0000  0.5000  0.5000 )  
               a(2) = (  0.5000  0.0000  0.5000 )  
               a(3) = (  0.5000  0.5000  0.0000 )  

     reciprocal axes: (cart. coord. in units 2 pi/alat)
               b(1) = ( -1.0000  1.0000  1.0000 )  
               b(2) = (  1.0000 -1.0000  1.0000 )  
               b(3) = (  1.0000  1.0000 -1.0000 )  


     Atoms inside the unit cell: 

   Cartesian axes

     site n.  atom      mass           positions (alat units)
        1        Pb 207.2000   tau( 1) = (    0.00000    0.00000    0.00000  )
        2        Te 127.6000   tau( 2) = (    0.50000    0.50000    0.50000  )

     Computing dynamical matrix for 
                    q = (  -0.5000000  -0.5000000   0.5000000 )
 
     13 Sym.Ops. (with q -> -q+G )


     G cutoff = 2295.3102  (   9596 G-vectors)     FFT grid: ( 72, 72, 72)
     G cutoff =  918.1241  (   2431 G-vectors)  smooth grid: ( 45, 45, 45)
     number of k points=    64

     PseudoPot. # 1 for Pb read from file:
     /work/02599/asmiller/pseudo/gbrv/pbe_GBRV/pb_pbe_v1.uspp.F.UPF
     MD5 check sum: a5f44a0c8587cfbb5a05efeead6b9227
     Pseudo is Ultrasoft + core correction, Zval = 14.0
     Generated by new atomic code, or converted to UPF format
     Using radial grid of  899 points,  6 beta functions with: 
                l(1) =   0
                l(2) =   0
                l(3) =   1
                l(4) =   1
                l(5) =   2
                l(6) =   2
     Q(r) pseudized with  6 coefficients,  rinner =    1.000   1.000   1.000
                                                       1.000   1.000

     PseudoPot. # 2 for Te read from file:
     /work/02599/asmiller/pseudo/gbrv/pbe_GBRV/te_pbe_v1.uspp.F.UPF
     MD5 check sum: 749656373d74338a59c146dbd702c29e
     Pseudo is Ultrasoft + core correction, Zval =  6.0
     Generated by new atomic code, or converted to UPF format
     Using radial grid of  891 points,  5 beta functions with: 
                l(1) =   0
                l(2) =   0
                l(3) =   1
                l(4) =   1
                l(5) =   2
     Q(r) pseudized with  6 coefficients,  rinner =    1.800   1.800   1.800
                                                       1.800   1.800


     Atomic displacements:
     There are   4 irreducible representations

     Representation     1      1 modes -A_1g L_1 To be done

     Representation     2      2 modes -E_g  L_3 To be done

     Representation     3      1 modes -A_2u L_2' To be done

     Representation     4      2 modes -E_u  L_3' To be done



     Alpha used in Ewald sum =   2.8000

     negative rho (up, down):  0.156E-01 0.000E+00
     PHONON       : 10m 0.91s CPU    10m32.56s WALL



     Representation #  1 mode #   1

     Self-consistent Calculation

      iter #   1 total cpu time :   633.9 secs   av.it.:   4.6
      thresh= 0.100E-01 alpha_mix =  0.700 |ddv_scf|^2 =  0.830E-05

      iter #   2 total cpu time :   636.4 secs   av.it.:  13.7
      thresh= 0.288E-03 alpha_mix =  0.700 |ddv_scf|^2 =  0.421E-04

      iter #   3 total cpu time :   638.6 secs   av.it.:  11.7
      thresh= 0.649E-03 alpha_mix =  0.700 |ddv_scf|^2 =  0.184E-08

      iter #   4 total cpu time :   641.3 secs   av.it.:  15.4
      thresh= 0.429E-05 alpha_mix =  0.700 |ddv_scf|^2 =  0.189E-09

      iter #   5 total cpu time :   643.8 secs   av.it.:  14.4
      thresh= 0.137E-05 alpha_mix =  0.700 |ddv_scf|^2 =  0.620E-11

      iter #   6 total cpu time :   646.3 secs   av.it.:  14.0
      thresh= 0.249E-06 alpha_mix =  0.700 |ddv_scf|^2 =  0.112E-12

      iter #   7 total cpu time :   648.9 secs   av.it.:  14.7
      thresh= 0.335E-07 alpha_mix =  0.700 |ddv_scf|^2 =  0.491E-15

      iter #   8 total cpu time :   651.5 secs   av.it.:  15.1
      thresh= 0.222E-08 alpha_mix =  0.700 |ddv_scf|^2 =  0.642E-17

     End of self-consistent calculation

     Convergence has been achieved 


     Representation #  2 modes #   2  3

     Self-consistent Calculation

      iter #   1 total cpu time :   654.0 secs   av.it.:   4.1
      thresh= 0.100E-01 alpha_mix =  0.700 |ddv_scf|^2 =  0.202E-07

      iter #   2 total cpu time :   659.4 secs   av.it.:  15.8
      thresh= 0.142E-04 alpha_mix =  0.700 |ddv_scf|^2 =  0.189E-08

      iter #   3 total cpu time :   664.8 secs   av.it.:  16.3
      thresh= 0.435E-05 alpha_mix =  0.700 |ddv_scf|^2 =  0.500E-10

      iter #   4 total cpu time :   670.3 secs   av.it.:  16.3
      thresh= 0.707E-06 alpha_mix =  0.700 |ddv_scf|^2 =  0.280E-12

      iter #   5 total cpu time :   676.0 secs   av.it.:  17.0
      thresh= 0.529E-07 alpha_mix =  0.700 |ddv_scf|^2 =  0.341E-14

      iter #   6 total cpu time :   681.6 secs   av.it.:  17.1
      thresh= 0.584E-08 alpha_mix =  0.700 |ddv_scf|^2 =  0.142E-16

     End of self-consistent calculation

     Convergence has been achieved 


     Representation #  3 mode #   4

     Self-consistent Calculation

      iter #   1 total cpu time :   683.8 secs   av.it.:   9.7
      thresh= 0.100E-01 alpha_mix =  0.700 |ddv_scf|^2 =  0.605E-04

      iter #   2 total cpu time :   686.4 secs   av.it.:  14.8
      thresh= 0.778E-03 alpha_mix =  0.700 |ddv_scf|^2 =  0.302E-03

      iter #   3 total cpu time :   688.7 secs   av.it.:  12.8
      thresh= 0.174E-02 alpha_mix =  0.700 |ddv_scf|^2 =  0.182E-06

      iter #   4 total cpu time :   691.3 secs   av.it.:  14.9
      thresh= 0.426E-04 alpha_mix =  0.700 |ddv_scf|^2 =  0.699E-08

      iter #   5 total cpu time :   693.8 secs   av.it.:  14.1
      thresh= 0.836E-05 alpha_mix =  0.700 |ddv_scf|^2 =  0.909E-10

      iter #   6 total cpu time :   696.4 secs   av.it.:  15.1
      thresh= 0.953E-06 alpha_mix =  0.700 |ddv_scf|^2 =  0.796E-12

      iter #   7 total cpu time :   699.0 secs   av.it.:  14.6
      thresh= 0.892E-07 alpha_mix =  0.700 |ddv_scf|^2 =  0.338E-13

      iter #   8 total cpu time :   701.4 secs   av.it.:  14.0
      thresh= 0.184E-07 alpha_mix =  0.700 |ddv_scf|^2 =  0.284E-15

      iter #   9 total cpu time :   704.1 secs   av.it.:  15.1
      thresh= 0.169E-08 alpha_mix =  0.700 |ddv_scf|^2 =  0.617E-17

     End of self-consistent calculation

     Convergence has been achieved 


     Representation #  4 modes #   5  6

     Self-consistent Calculation

      iter #   1 total cpu time :   707.7 secs   av.it.:   8.7
      thresh= 0.100E-01 alpha_mix =  0.700 |ddv_scf|^2 =  0.908E-06

      iter #   2 total cpu time :   713.5 secs   av.it.:  17.0
      thresh= 0.953E-04 alpha_mix =  0.700 |ddv_scf|^2 =  0.338E-06

      iter #   3 total cpu time :   719.0 secs   av.it.:  16.5
      thresh= 0.581E-04 alpha_mix =  0.700 |ddv_scf|^2 =  0.136E-09

      iter #   4 total cpu time :   724.6 secs   av.it.:  17.2
      thresh= 0.117E-05 alpha_mix =  0.700 |ddv_scf|^2 =  0.409E-11

      iter #   5 total cpu time :   730.0 secs   av.it.:  16.2
      thresh= 0.202E-06 alpha_mix =  0.700 |ddv_scf|^2 =  0.246E-13

      iter #   6 total cpu time :   735.5 secs   av.it.:  16.7
      thresh= 0.157E-07 alpha_mix =  0.700 |ddv_scf|^2 =  0.524E-15

      iter #   7 total cpu time :   740.9 secs   av.it.:  16.3
      thresh= 0.229E-08 alpha_mix =  0.700 |ddv_scf|^2 =  0.236E-17

     End of self-consistent calculation

     Convergence has been achieved 
 
     Number of q in the star =    4
     List of q in the star:
          1  -0.500000000  -0.500000000   0.500000000
          2  -0.500000000   0.500000000   0.500000000
          3  -0.500000000  -0.500000000  -0.500000000
          4  -0.500000000   0.500000000  -0.500000000

     Diagonalizing the dynamical matrix

     q = (   -0.500000000  -0.500000000   0.500000000 ) 

 **************************************************************************
     omega( 1) =       1.614573 [THz] =      53.856367 [cm-1]
     omega( 2) =       1.614573 [THz] =      53.856367 [cm-1]
     omega( 3) =       2.613187 [THz] =      87.166538 [cm-1]
     omega( 4) =       2.761473 [THz] =      92.112833 [cm-1]
     omega( 5) =       2.761473 [THz] =      92.112833 [cm-1]
     omega( 6) =       3.045901 [THz] =     101.600314 [cm-1]
 **************************************************************************

     Mode symmetry, D_3d (-3m)  point group:

     omega(  1 -  2) =         53.9  [cm-1]   --> E_u  L_3'          
     omega(  3 -  3) =         87.2  [cm-1]   --> A_2u L_2'          
     omega(  4 -  5) =         92.1  [cm-1]   --> E_g  L_3           
     omega(  6 -  6) =        101.6  [cm-1]   --> A_1g L_1           

 **************************************************************************

     Calculation of q =    0.3333333   0.0000000   0.0000000
 
     Parallelization info
     --------------------
     sticks:   dense  smooth     PW     G-vecs:    dense   smooth      PW
     Min         259     105     30                 9595     2422     386
     Max         260     106     31                 9597     2432     389
     Sum        3115    1261    367               115147    29123    4645
 


     bravais-lattice index     =            0
     lattice parameter (alat)  =      12.2892  a.u.
     unit-cell volume          =     463.9966 (a.u.)^3
     number of atoms/cell      =            2
     number of atomic types    =            2
     number of electrons       =        20.00
     number of Kohn-Sham states=           10
     kinetic-energy cutoff     =      60.0000  Ry
     charge density cutoff     =     600.0000  Ry
     Exchange-correlation      = PBESOL ( 1 410 8 0)
     EXX-fraction              =        0.00

     celldm(1)=  12.289237  celldm(2)=   0.000000  celldm(3)=   0.000000
     celldm(4)=   0.000000  celldm(5)=   0.000000  celldm(6)=   0.000000

     crystal axes: (cart. coord. in units of alat)
               a(1) = (   0.000000   0.500000   0.500000 )  
               a(2) = (   0.500000   0.000000   0.500000 )  
               a(3) = (   0.500000   0.500000   0.000000 )  

     reciprocal axes: (cart. coord. in units 2 pi/alat)
               b(1) = ( -1.000000  1.000000  1.000000 )  
               b(2) = (  1.000000 -1.000000  1.000000 )  
               b(3) = (  1.000000  1.000000 -1.000000 )  


     PseudoPot. # 1 for Pb read from file:
     /work/02599/asmiller/pseudo/gbrv/pbe_GBRV/pb_pbe_v1.uspp.F.UPF
     MD5 check sum: a5f44a0c8587cfbb5a05efeead6b9227
     Pseudo is Ultrasoft + core correction, Zval = 14.0
     Generated by new atomic code, or converted to UPF format
     Using radial grid of  899 points,  6 beta functions with: 
                l(1) =   0
                l(2) =   0
                l(3) =   1
                l(4) =   1
                l(5) =   2
                l(6) =   2
     Q(r) pseudized with  6 coefficients,  rinner =    1.000   1.000   1.000
                                                       1.000   1.000

     PseudoPot. # 2 for Te read from file:
     /work/02599/asmiller/pseudo/gbrv/pbe_GBRV/te_pbe_v1.uspp.F.UPF
     MD5 check sum: 749656373d74338a59c146dbd702c29e
     Pseudo is Ultrasoft + core correction, Zval =  6.0
     Generated by new atomic code, or converted to UPF format
     Using radial grid of  891 points,  5 beta functions with: 
                l(1) =   0
                l(2) =   0
                l(3) =   1
                l(4) =   1
                l(5) =   2
     Q(r) pseudized with  6 coefficients,  rinner =    1.800   1.800   1.800
                                                       1.800   1.800

     atomic species   valence    mass     pseudopotential
        Pb            14.00   207.20000     Pb( 1.00)
        Te             6.00   127.60000     Te( 1.00)

     48 Sym. Ops., with inversion, found



   Cartesian axes

     site n.     atom                  positions (alat units)
         1           Pb  tau(   1) = (   0.0000000   0.0000000   0.0000000  )
         2           Te  tau(   2) = (   0.5000000   0.5000000   0.5000000  )

     number of k points=    96
                       cart. coord. in units 2pi/alat
        k(    1) = (   0.0000000   0.0000000   0.0000000), wk =   0.0092593
        k(    2) = (   0.3333333   0.0000000   0.0000000), wk =   0.0000000
        k(    3) = (   0.1666667   0.1666667  -0.1666667), wk =   0.0370370
        k(    4) = (   0.5000000   0.1666667  -0.1666667), wk =   0.0000000
        k(    5) = (   0.3333333   0.3333333  -0.3333333), wk =   0.0370370
        k(    6) = (   0.6666667   0.3333333  -0.3333333), wk =   0.0000000
        k(    7) = (  -0.5000000  -0.5000000   0.5000000), wk =   0.0370370
        k(    8) = (  -0.1666667  -0.5000000   0.5000000), wk =   0.0000000
        k(    9) = (   0.3333333   0.0000000   0.0000000), wk =   0.0092593
        k(   10) = (   0.6666667   0.0000000   0.0000000), wk =   0.0000000
        k(   11) = (   0.5000000   0.1666667  -0.1666667), wk =   0.0370370
        k(   12) = (   0.8333333   0.1666667  -0.1666667), wk =   0.0000000
        k(   13) = (  -0.3333333  -0.6666667   0.6666667), wk =   0.0370370
        k(   14) = (   0.0000000  -0.6666667   0.6666667), wk =   0.0000000
        k(   15) = (  -0.1666667  -0.5000000   0.5000000), wk =   0.0370370
        k(   16) = (   0.1666667  -0.5000000   0.5000000), wk =   0.0000000
        k(   17) = (   0.0000000  -0.3333333   0.3333333), wk =   0.0370370
        k(   18) = (   0.3333333  -0.3333333   0.3333333), wk =   0.0000000
        k(   19) = (   0.6666667   0.0000000   0.0000000), wk =   0.0092593
        k(   20) = (   1.0000000   0.0000000   0.0000000), wk =   0.0000000
        k(   21) = (  -0.1666667  -0.8333333   0.8333333), wk =   0.0370370
        k(   22) = (   0.1666667  -0.8333333   0.8333333), wk =   0.0000000
        k(   23) = (   0.0000000  -0.6666667   0.6666667), wk =   0.0370370
        k(   24) = (   0.3333333  -0.6666667   0.6666667), wk =   0.0000000
        k(   25) = (  -1.0000000   0.0000000   0.0000000), wk =   0.0092593
        k(   26) = (  -0.6666667   0.0000000   0.0000000), wk =   0.0000000
        k(   27) = (  -0.3333333  -0.6666667   1.0000000), wk =   0.0370370
        k(   28) = (   0.0000000  -0.6666667   1.0000000), wk =   0.0000000
        k(   29) = (  -0.1666667  -0.5000000   0.8333333), wk =   0.0740741
        k(   30) = (   0.1666667  -0.5000000   0.8333333), wk =   0.0000000
        k(   31) = (  -1.0000000   0.3333333   0.0000000), wk =   0.0370370
        k(   32) = (  -0.6666667   0.3333333   0.0000000), wk =   0.0000000
        k(   33) = (  -0.1666667  -0.1666667   0.1666667), wk =   0.0370370
        k(   34) = (   0.1666667  -0.1666667   0.1666667), wk =   0.0000000
        k(   35) = (  -0.3333333  -0.3333333   0.3333333), wk =   0.0370370
        k(   36) = (   0.0000000  -0.3333333   0.3333333), wk =   0.0000000
        k(   37) = (   0.0000000   0.0000000   0.3333333), wk =   0.0370370
        k(   38) = (   0.3333333   0.0000000   0.3333333), wk =   0.0000000
        k(   39) = (  -0.3333333   0.0000000   0.0000000), wk =   0.0092593
        k(   40) = (   0.0000000   0.0000000   0.0000000), wk =   0.0000000
        k(   41) = (  -0.1666667  -0.1666667   0.5000000), wk =   0.0740741
        k(   42) = (   0.1666667  -0.1666667   0.5000000), wk =   0.0000000
        k(   43) = (   0.1666667   0.1666667  -0.5000000), wk =   0.0740741
[...]

     The potential is recalculated from file :
     ./_ph0/PbTe.save/charge-density.dat


     negative rho (up, down):  0.156E-01 0.000E+00
     Starting wfc are   13 atomic wfcs

     total cpu time spent up to now is      234.0 secs

     per-process dynamical memory:    71.8 Mb

     Band Structure Calculation
     Davidson diagonalization with overlap

     ethr =  5.00E-11,  avg # of iterations = 29.5

     total cpu time spent up to now is      248.2 secs

     End of band structure calculation

     Number of k-points >= 100: set verbosity='high' to print the bands.

     Writing output data file PbTe.save

                                                                                

     bravais-lattice index     =            0
     lattice parameter (alat)  =      12.2892  a.u.
     unit-cell volume          =     463.9966 (a.u.)^3
     number of atoms/cell      =            2
     number of atomic types    =            2
     kinetic-energy cut-off    =      60.0000  Ry
     charge density cut-off    =     600.0000  Ry
     convergence threshold     =      1.0E-16
     beta                      =       0.7000
     number of iterations used =            4
     Exchange-correlation      = PBESOL ( 1 410 8 0)
     EXX-fraction              =        0.00


     celldm(1)=   12.28924  celldm(2)=    0.00000  celldm(3)=    0.00000
     celldm(4)=    0.00000  celldm(5)=    0.00000  celldm(6)=    0.00000

     crystal axes: (cart. coord. in units of alat)
               a(1) = (  0.0000  0.5000  0.5000 )  
               a(2) = (  0.5000  0.0000  0.5000 )  
               a(3) = (  0.5000  0.5000  0.0000 )  

     reciprocal axes: (cart. coord. in units 2 pi/alat)
               b(1) = ( -1.0000  1.0000  1.0000 )  
               b(2) = (  1.0000 -1.0000  1.0000 )  
               b(3) = (  1.0000  1.0000 -1.0000 )  


     Atoms inside the unit cell: 

   Cartesian axes

     site n.  atom      mass           positions (alat units)
        1        Pb 207.2000   tau( 1) = (    0.00000    0.00000    0.00000  )
        2        Te 127.6000   tau( 2) = (    0.50000    0.50000    0.50000  )

     Computing dynamical matrix for 
                    q = (  -1.0000000   0.3333333   0.0000000 )
 
      4 Sym.Ops. (no q -> -q+G )


     G cutoff = 2295.3102  (   9596 G-vectors)     FFT grid: ( 72, 72, 72)
     G cutoff =  918.1241  (   2431 G-vectors)  smooth grid: ( 45, 45, 45)
     number of k points=   150

     PseudoPot. # 1 for Pb read from file:
     /work/02599/asmiller/pseudo/gbrv/pbe_GBRV/pb_pbe_v1.uspp.F.UPF
     MD5 check sum: a5f44a0c8587cfbb5a05efeead6b9227
     Pseudo is Ultrasoft + core correction, Zval = 14.0
     Generated by new atomic code, or converted to UPF format
     Using radial grid of  899 points,  6 beta functions with: 
                l(1) =   0
                l(2) =   0
                l(3) =   1
                l(4) =   1
                l(5) =   2
                l(6) =   2
     Q(r) pseudized with  6 coefficients,  rinner =    1.000   1.000   1.000
                                                       1.000   1.000

     PseudoPot. # 2 for Te read from file:
     /work/02599/asmiller/pseudo/gbrv/pbe_GBRV/te_pbe_v1.uspp.F.UPF
     MD5 check sum: 749656373d74338a59c146dbd702c29e
     Pseudo is Ultrasoft + core correction, Zval =  6.0
     Generated by new atomic code, or converted to UPF format
     Using radial grid of  891 points,  5 beta functions with: 
                l(1) =   0
                l(2) =   0
                l(3) =   1
                l(4) =   1
                l(5) =   2
     Q(r) pseudized with  6 coefficients,  rinner =    1.800   1.800   1.800
                                                       1.800   1.800


     Atomic displacements:
     There are   6 irreducible representations

     Representation     1      1 modes -A_1  D_1  S_1 To be done

     Representation     2      1 modes -A_1  D_1  S_1 To be done

     Representation     3      1 modes -B_1  D_3  S_3 To be done

     Representation     4      1 modes -B_1  D_3  S_3 To be done

     Representation     5      1 modes -B_2  D_4  S_4 To be done

     Representation     6      1 modes -B_2  D_4  S_4 To be done



     Alpha used in Ewald sum =   2.8000

     negative rho (up, down):  0.156E-01 0.000E+00
     PHONON       :     1h32m CPU        1h39m WALL



     Representation #  1 mode #   1

     Self-consistent Calculation

      iter #   1 total cpu time :  5967.7 secs   av.it.:   5.0
      thresh= 0.100E-01 alpha_mix =  0.700 |ddv_scf|^2 =  0.512E-06

      iter #   2 total cpu time :  5973.6 secs   av.it.:  15.4
      thresh= 0.715E-04 alpha_mix =  0.700 |ddv_scf|^2 =  0.519E-06

      iter #   3 total cpu time :  5979.2 secs   av.it.:  14.6
      thresh= 0.720E-04 alpha_mix =  0.700 |ddv_scf|^2 =  0.963E-09

      iter #   4 total cpu time :  5985.4 secs   av.it.:  16.4
      thresh= 0.310E-05 alpha_mix =  0.700 |ddv_scf|^2 =  0.422E-09

      iter #   5 total cpu time :  5991.3 secs   av.it.:  15.5
      thresh= 0.205E-05 alpha_mix =  0.700 |ddv_scf|^2 =  0.753E-10

      iter #   6 total cpu time :  5997.2 secs   av.it.:  15.3
      thresh= 0.868E-06 alpha_mix =  0.700 |ddv_scf|^2 =  0.718E-12

      iter #   7 total cpu time :  6003.4 secs   av.it.:  16.4
      thresh= 0.847E-07 alpha_mix =  0.700 |ddv_scf|^2 =  0.736E-13

      iter #   8 total cpu time :  6009.5 secs   av.it.:  16.2
      thresh= 0.271E-07 alpha_mix =  0.700 |ddv_scf|^2 =  0.529E-14

      iter #   9 total cpu time :  6015.6 secs   av.it.:  16.0
      thresh= 0.727E-08 alpha_mix =  0.700 |ddv_scf|^2 =  0.199E-14

      iter #  10 total cpu time :  6021.4 secs   av.it.:  15.2
      thresh= 0.446E-08 alpha_mix =  0.700 |ddv_scf|^2 =  0.401E-16

     End of self-consistent calculation

     Convergence has been achieved 


     Representation #  2 mode #   2

     Self-consistent Calculation

      iter #   1 total cpu time :  6025.4 secs   av.it.:   8.6
      thresh= 0.100E-01 alpha_mix =  0.700 |ddv_scf|^2 =  0.792E-05

      iter #   2 total cpu time :  6031.4 secs   av.it.:  15.9
      thresh= 0.281E-03 alpha_mix =  0.700 |ddv_scf|^2 =  0.107E-04

      iter #   3 total cpu time :  6037.1 secs   av.it.:  14.7
      thresh= 0.328E-03 alpha_mix =  0.700 |ddv_scf|^2 =  0.159E-06

      iter #   4 total cpu time :  6042.8 secs   av.it.:  14.9
      thresh= 0.399E-04 alpha_mix =  0.700 |ddv_scf|^2 =  0.303E-08

      iter #   5 total cpu time :  6048.7 secs   av.it.:  15.7
      thresh= 0.550E-05 alpha_mix =  0.700 |ddv_scf|^2 =  0.487E-09

      iter #   6 total cpu time :  6054.7 secs   av.it.:  15.7
      thresh= 0.221E-05 alpha_mix =  0.700 |ddv_scf|^2 =  0.950E-11

      iter #   7 total cpu time :  6060.8 secs   av.it.:  16.3
      thresh= 0.308E-06 alpha_mix =  0.700 |ddv_scf|^2 =  0.783E-12

      iter #   8 total cpu time :  6066.9 secs   av.it.:  16.2
      thresh= 0.885E-07 alpha_mix =  0.700 |ddv_scf|^2 =  0.185E-12

      iter #   9 total cpu time :  6072.7 secs   av.it.:  15.2
      thresh= 0.430E-07 alpha_mix =  0.700 |ddv_scf|^2 =  0.233E-13

      iter #  10 total cpu time :  6078.5 secs   av.it.:  15.1
      thresh= 0.153E-07 alpha_mix =  0.700 |ddv_scf|^2 =  0.853E-15

      iter #  11 total cpu time :  6084.5 secs   av.it.:  15.8
      thresh= 0.292E-08 alpha_mix =  0.700 |ddv_scf|^2 =  0.133E-15

      iter #  12 total cpu time :  6090.3 secs   av.it.:  15.3
      thresh= 0.116E-08 alpha_mix =  0.700 |ddv_scf|^2 =  0.240E-16

     End of self-consistent calculation

     Convergence has been achieved 


     Representation #  3 mode #   3

     Self-consistent Calculation

      iter #   1 total cpu time :  6094.3 secs   av.it.:   8.4
      thresh= 0.100E-01 alpha_mix =  0.700 |ddv_scf|^2 =  0.906E-05

      iter #   2 total cpu time :  6100.2 secs   av.it.:  15.3
      thresh= 0.301E-03 alpha_mix =  0.700 |ddv_scf|^2 =  0.926E-05

      iter #   3 total cpu time :  6105.9 secs   av.it.:  14.5
      thresh= 0.304E-03 alpha_mix =  0.700 |ddv_scf|^2 =  0.512E-08

      iter #   4 total cpu time :  6111.7 secs   av.it.:  15.1
      thresh= 0.716E-05 alpha_mix =  0.700 |ddv_scf|^2 =  0.117E-09

      iter #   5 total cpu time :  6117.7 secs   av.it.:  15.5
      thresh= 0.108E-05 alpha_mix =  0.700 |ddv_scf|^2 =  0.647E-11

      iter #   6 total cpu time :  6123.5 secs   av.it.:  14.8
      thresh= 0.254E-06 alpha_mix =  0.700 |ddv_scf|^2 =  0.360E-13

      iter #   7 total cpu time :  6129.5 secs   av.it.:  15.6
      thresh= 0.190E-07 alpha_mix =  0.700 |ddv_scf|^2 =  0.122E-14

      iter #   8 total cpu time :  6135.3 secs   av.it.:  15.1
      thresh= 0.350E-08 alpha_mix =  0.700 |ddv_scf|^2 =  0.871E-17

     End of self-consistent calculation

     Convergence has been achieved 


     Representation #  4 mode #   4

     Self-consistent Calculation

      iter #   1 total cpu time :  6138.3 secs   av.it.:   5.6
      thresh= 0.100E-01 alpha_mix =  0.700 |ddv_scf|^2 =  0.520E-06

      iter #   2 total cpu time :  6144.1 secs   av.it.:  15.1
      thresh= 0.721E-04 alpha_mix =  0.700 |ddv_scf|^2 =  0.397E-06

      iter #   3 total cpu time :  6149.9 secs   av.it.:  14.6
      thresh= 0.630E-04 alpha_mix =  0.700 |ddv_scf|^2 =  0.126E-08

      iter #   4 total cpu time :  6155.7 secs   av.it.:  15.3
      thresh= 0.355E-05 alpha_mix =  0.700 |ddv_scf|^2 =  0.648E-10

      iter #   5 total cpu time :  6161.6 secs   av.it.:  15.1
      thresh= 0.805E-06 alpha_mix =  0.700 |ddv_scf|^2 =  0.101E-11

      iter #   6 total cpu time :  6167.6 secs   av.it.:  15.4
      thresh= 0.100E-06 alpha_mix =  0.700 |ddv_scf|^2 =  0.506E-14

      iter #   7 total cpu time :  6173.5 secs   av.it.:  15.3
      thresh= 0.711E-08 alpha_mix =  0.700 |ddv_scf|^2 =  0.253E-15

      iter #   8 total cpu time :  6179.4 secs   av.it.:  15.3
      thresh= 0.159E-08 alpha_mix =  0.700 |ddv_scf|^2 =  0.267E-17

     End of self-consistent calculation

     Convergence has been achieved 


     Representation #  5 mode #   5

     Self-consistent Calculation

      iter #   1 total cpu time :  6182.4 secs   av.it.:   5.9
      thresh= 0.100E-01 alpha_mix =  0.700 |ddv_scf|^2 =  0.162E-05

      iter #   2 total cpu time :  6188.2 secs   av.it.:  15.0
      thresh= 0.127E-03 alpha_mix =  0.700 |ddv_scf|^2 =  0.255E-05

      iter #   3 total cpu time :  6193.8 secs   av.it.:  14.2
      thresh= 0.160E-03 alpha_mix =  0.700 |ddv_scf|^2 =  0.241E-08

      iter #   4 total cpu time :  6199.6 secs   av.it.:  15.2
      thresh= 0.491E-05 alpha_mix =  0.700 |ddv_scf|^2 =  0.123E-09

      iter #   5 total cpu time :  6205.3 secs   av.it.:  14.6
      thresh= 0.111E-05 alpha_mix =  0.700 |ddv_scf|^2 =  0.221E-11

      iter #   6 total cpu time :  6211.2 secs   av.it.:  15.1
      thresh= 0.148E-06 alpha_mix =  0.700 |ddv_scf|^2 =  0.227E-13

      iter #   7 total cpu time :  6216.8 secs   av.it.:  14.6
      thresh= 0.151E-07 alpha_mix =  0.700 |ddv_scf|^2 =  0.320E-15

      iter #   8 total cpu time :  6222.7 secs   av.it.:  15.2
      thresh= 0.179E-08 alpha_mix =  0.700 |ddv_scf|^2 =  0.728E-17

     End of self-consistent calculation

     Convergence has been achieved 


     Representation #  6 mode #   6

     Self-consistent Calculation

      iter #   1 total cpu time :  6226.7 secs   av.it.:   8.7
      thresh= 0.100E-01 alpha_mix =  0.700 |ddv_scf|^2 =  0.201E-04

      iter #   2 total cpu time :  6232.5 secs   av.it.:  15.2
      thresh= 0.448E-03 alpha_mix =  0.700 |ddv_scf|^2 =  0.381E-04

      iter #   3 total cpu time :  6238.0 secs   av.it.:  14.1
      thresh= 0.617E-03 alpha_mix =  0.700 |ddv_scf|^2 =  0.187E-07

      iter #   4 total cpu time :  6243.7 secs   av.it.:  14.5
      thresh= 0.137E-04 alpha_mix =  0.700 |ddv_scf|^2 =  0.153E-09

      iter #   5 total cpu time :  6249.6 secs   av.it.:  15.6
      thresh= 0.124E-05 alpha_mix =  0.700 |ddv_scf|^2 =  0.965E-11

      iter #   6 total cpu time :  6255.2 secs   av.it.:  14.1
      thresh= 0.311E-06 alpha_mix =  0.700 |ddv_scf|^2 =  0.101E-12

      iter #   7 total cpu time :  6261.1 secs   av.it.:  15.4
      thresh= 0.318E-07 alpha_mix =  0.700 |ddv_scf|^2 =  0.144E-14

      iter #   8 total cpu time :  6267.1 secs   av.it.:  15.8
      thresh= 0.380E-08 alpha_mix =  0.700 |ddv_scf|^2 =  0.277E-16

     End of self-consistent calculation

     Convergence has been achieved 
 
     Number of q in the star =   12
     List of q in the star:
          1  -1.000000000   0.333333333   0.000000000
          2  -1.000000000  -0.333333333   0.000000000
          3  -1.000000000   0.000000000   0.333333333
          4   1.000000000   0.000000000  -0.333333333
          5   0.000000000  -0.333333333  -1.000000000
          6   0.333333333   0.000000000  -1.000000000
          7  -0.333333333   0.000000000   1.000000000
          8   0.000000000  -1.000000000  -0.333333333
          9   0.000000000  -1.000000000   0.333333333
         10   0.333333333   1.000000000   0.000000000
         11  -0.333333333   1.000000000   0.000000000
         12   0.000000000   0.333333333   1.000000000

     Diagonalizing the dynamical matrix

     q = (   -1.000000000   0.333333333   0.000000000 ) 

 **************************************************************************
     omega( 1) =       0.856313 [THz] =      28.563541 [cm-1]
     omega( 2) =       0.951411 [THz] =      31.735660 [cm-1]
     omega( 3) =       1.606365 [THz] =      53.582561 [cm-1]
     omega( 4) =       2.029917 [THz] =      67.710756 [cm-1]
     omega( 5) =       2.134675 [THz] =      71.205080 [cm-1]
     omega( 6) =       2.710947 [THz] =      90.427458 [cm-1]
 **************************************************************************

     Mode symmetry, C_2v (mm2)  point group:

     omega(  1 -  1) =         28.6  [cm-1]   --> B_1  D_3  S_3      
     omega(  2 -  2) =         31.7  [cm-1]   --> B_2  D_4  S_4      
     omega(  3 -  3) =         53.6  [cm-1]   --> A_1  D_1  S_1      
     omega(  4 -  4) =         67.7  [cm-1]   --> B_1  D_3  S_3      
     omega(  5 -  5) =         71.2  [cm-1]   --> B_2  D_4  S_4      
     omega(  6 -  6) =         90.4  [cm-1]   --> A_1  D_1  S_1      

 **************************************************************************
 
     init_run     :      8.44s CPU      9.27s WALL (      15 calls)
     electrons    :    212.61s CPU    232.84s WALL (      15 calls)

     Called by init_run:
     wfcinit      :      0.00s CPU      0.00s WALL (      15 calls)
     potinit      :      1.29s CPU      1.39s WALL (      15 calls)

     Called by electrons:
     c_bands      :    212.56s CPU    232.77s WALL (      15 calls)
     v_of_rho     :      0.54s CPU      0.55s WALL (      16 calls)
     newd         :      0.98s CPU      0.99s WALL (      16 calls)

     Called by c_bands:
     init_us_2    :      6.85s CPU      6.92s WALL (   44524 calls)
     cegterg      :    193.20s CPU    203.73s WALL (    2387 calls)

     Called by *egterg:
     h_psi        :    171.69s CPU    182.73s WALL (   40977 calls)
     s_psi        :    151.05s CPU    154.31s WALL ( 1714810 calls)
     g_psi        :      1.48s CPU      1.46s WALL (   37348 calls)
     cdiaghg      :     13.40s CPU     13.66s WALL (   38590 calls)

     Called by h_psi:
     add_vuspsi   :     95.13s CPU     97.32s WALL (  858082 calls)

     General routines
     calbec       :    240.17s CPU    234.78s WALL ( 1784381 calls)
     fft          :     31.05s CPU     33.28s WALL (   17443 calls)
     ffts         :      3.27s CPU      3.70s WALL (    6428 calls)
     fftw         :   3822.65s CPU   4143.83s WALL (14634582 calls)
     interpolate  :      0.09s CPU      0.09s WALL (      31 calls)
     davcio       :      1.14s CPU     18.86s WALL (  207750 calls)
 
     Parallel routines
     fft_scatter  :   1779.07s CPU   2090.64s WALL (14658453 calls)
 
     PHONON       :     1h37m CPU        1h44m WALL

     INITIALIZATION: 
     phq_setup    :      1.25s CPU      1.82s WALL (      16 calls)
     phq_init     :     62.54s CPU     64.28s WALL (      16 calls)
 
     phq_init     :     62.54s CPU     64.28s WALL (      16 calls)
     set_drhoc    :     19.54s CPU     19.53s WALL (      48 calls)
     init_vloc    :      0.16s CPU      0.17s WALL (      16 calls)
     init_us_1    :      3.61s CPU      3.62s WALL (      16 calls)
     newd         :      0.98s CPU      0.99s WALL (      16 calls)
     dvanqq       :     12.58s CPU     12.57s WALL (      16 calls)
     drho         :     25.10s CPU     26.39s WALL (      16 calls)
 
     DYNAMICAL MATRIX:
     dynmat0      :     14.60s CPU     14.98s WALL (      16 calls)
     phqscf       :   5523.89s CPU   5901.41s WALL (      16 calls)
     dynmatrix    :      0.06s CPU      0.14s WALL (      16 calls)
 
     phqscf       :   5523.89s CPU   5901.41s WALL (      16 calls)
     solve_linter :   5519.69s CPU   5894.35s WALL (      80 calls)
     drhodv       :      3.42s CPU      3.63s WALL (      80 calls)
 
     dynmat0      :     14.60s CPU     14.98s WALL (      16 calls)
     dynmat_us    :      1.32s CPU      1.35s WALL (      16 calls)
     d2ionq       :      0.04s CPU      0.05s WALL (      16 calls)
     dynmatcc     :     12.98s CPU     13.01s WALL (      16 calls)
 
     dynmat_us    :      1.32s CPU      1.35s WALL (      16 calls)
     addusdynmat  :      0.00s CPU      0.00s WALL (      16 calls)
 
     phqscf       :   5523.89s CPU   5901.41s WALL (      16 calls)
     solve_linter :   5519.69s CPU   5894.35s WALL (      80 calls)
 
     solve_linter :   5519.69s CPU   5894.35s WALL (      80 calls)
     dvqpsi_us    :     26.27s CPU     28.07s WALL (    3822 calls)
     ortho        :     15.95s CPU     16.26s WALL (   39599 calls)
     cgsolve      :   4705.75s CPU   5004.11s WALL (   39599 calls)
     incdrhoscf   :    258.70s CPU    276.51s WALL (   39599 calls)
     addusddens   :     72.78s CPU     73.20s WALL (     893 calls)
     vpsifft      :    198.51s CPU    213.94s WALL (   35633 calls)
     dv_of_drho   :     33.03s CPU     34.37s WALL (     953 calls)
     mix_pot      :      7.03s CPU     19.35s WALL (     820 calls)
     psymdvscf    :     79.82s CPU     86.75s WALL (     813 calls)
     newdq        :     69.01s CPU     69.33s WALL (     820 calls)
     adddvscf     :      5.60s CPU      5.43s WALL (   35777 calls)
     drhodvus     :      0.16s CPU      0.29s WALL (      80 calls)
 
     dvqpsi_us    :     26.27s CPU     28.07s WALL (    3822 calls)
     dvqpsi_us_on :      2.97s CPU      2.80s WALL (    3822 calls)
 
     cgsolve      :   4705.75s CPU   5004.11s WALL (   39599 calls)
     ch_psi       :   4602.48s CPU   4904.32s WALL (  817105 calls)
 
     ch_psi       :   4602.48s CPU   4904.32s WALL (  817105 calls)
     h_psiq       :   4308.85s CPU   4605.58s WALL (  817105 calls)
     last         :    282.69s CPU    285.85s WALL (  817105 calls)
 
     h_psiq       :   4308.85s CPU   4605.58s WALL (  817105 calls)
     firstfft     :   2364.68s CPU   2511.12s WALL ( 6260018 calls)
     secondfft    :   1550.53s CPU   1694.76s WALL ( 6260018 calls)
     add_vuspsi   :     95.13s CPU     97.32s WALL (  858082 calls)
 
     incdrhoscf   :    258.70s CPU    276.51s WALL (   39599 calls)
     addusdbec    :      8.34s CPU      7.98s WALL (   43373 calls)
 
     drhodvus     :      0.16s CPU      0.29s WALL (      80 calls)
 
      General routines
     calbec       :    240.17s CPU    234.78s WALL ( 1784381 calls)
     fft          :     31.05s CPU     33.28s WALL (   17443 calls)
     ffts         :      3.27s CPU      3.70s WALL (    6428 calls)
     fftw         :   3822.65s CPU   4143.83s WALL (14634582 calls)
     cinterpolate :      5.11s CPU      5.59s WALL (    1999 calls)
     davcio       :      1.14s CPU     18.86s WALL (  207750 calls)
     write_rec    :      2.99s CPU     13.18s WALL (     900 calls)
 
TACC: Shutting down parallel environment.
TACC: Shutdown complete. Exiting.
