TACC: Starting up job 2153774
TACC: Setting up parallel environment for MVAPICH ssh-based mpirun.
TACC: Setup complete. Running job script.
TACC: starting parallel tasks...

     Program PHONON v.5.0.1 starts on  7Sep2014 at 14:58:47 

     This program is part of the open-source Quantum ESPRESSO suite
     for quantum simulation of materials; please cite
         "P. Giannozzi et al., J. Phys.:Condens. Matter 21 395502 (2009);
          URL http://www.quantum-espresso.org", 
     in publications or presentations arising from this work. More details at
     http://www.quantum-espresso.org/quote.php

     Parallel version (MPI), running on    36 processors
     K-points division:     npool     =    3
     R & G space division:  proc/pool =   12

     Ultrasoft (Vanderbilt) Pseudopotentials

   Info: using nr1, nr2, nr3 values from input

   Info: using nr1s, nr2s, nr3s values from input

     IMPORTANT: XC functional enforced from input :
     Exchange-correlation      = PBESOL ( 1 410 8 0)
     EXX-fraction              =        0.00
     Any further DFT definition will be discarded
     Please, verify this is what you really want

 
     Parallelization info
     --------------------
     sticks:   dense  smooth     PW     G-vecs:    dense   smooth      PW
     Min         217      71     21                 7255     1386     230
     Max         218      72     22                 7257     1405     233
     Sum        2613     859    257                87069    16727    2771
 

     Check: negative/imaginary core charge=   -0.000002    0.000000


     Dynamical matrices for ( 6, 6, 6)  uniform grid of q-points
     (  32q-points):
       N         xq(1)         xq(2)         xq(3) 
       1   0.000000000   0.000000000   0.000000000
       2  -0.241016795   0.139151112   0.096005000
       3  -0.482033590   0.278302223   0.192010000
       4   0.723050384  -0.417453335  -0.288015000
       5   0.000000000   0.278302223   0.192010000
       6  -0.241016795   0.417453335   0.288015000
       7   0.964067179  -0.278302223  -0.192010000
       8   0.723050384  -0.139151112  -0.096005000
       9   0.482033590   0.000000000   0.000000000
      10   0.000000000   0.556604446   0.384020000
      11   1.205083974  -0.139151112  -0.096005000
      12   0.964067179   0.000000000   0.000000000
      13   0.000000000  -0.834906669  -0.576030000
      14   0.000000000   0.000000000   0.288015000
      15  -0.241016795   0.139151112   0.384020000
      16   0.964067179  -0.556604446  -0.096005000
      17   0.723050384  -0.417453335   0.000000000
      18   0.482033590  -0.278302223   0.096005000
      19   0.000000000   0.278302223   0.480025000
      20   1.205083974  -0.417453335   0.000000000
      21   0.964067179  -0.278302223   0.096005000
      22   0.723050384  -0.139151112   0.192010000
      23   0.000000000  -1.113208892  -0.480025000
      24  -0.241016795  -0.974057781  -0.384020000
      25  -0.482033590  -0.834906669  -0.288015000
      26   0.000000000  -0.834906669  -0.288015000
      27   0.000000000   0.000000000   0.576030000
      28   1.205083974  -0.695755558   0.096005000
      29   0.964067179  -0.556604446   0.192010000
      30   0.000000000  -1.391511115  -0.384020000
      31  -0.241016795  -1.252360004  -0.288015000
      32   0.000000000   0.000000000  -0.864045001

     Calculation of q =    0.0000000   0.0000000   0.0000000

                                                                                

     bravais-lattice index     =            0
     lattice parameter (alat)  =      11.3542  a.u.
     unit-cell volume          =     350.7842 (a.u.)^3
     number of atoms/cell      =            2
     number of atomic types    =            2
     kinetic-energy cut-off    =      50.0000  Ry
     charge density cut-off    =     600.0000  Ry
     convergence threshold     =      1.0E-16
     beta                      =       0.7000
     number of iterations used =            4
     Exchange-correlation      = PBESOL ( 1 410 8 0)
     EXX-fraction              =        0.00


     celldm(1)=   11.35423  celldm(2)=    0.00000  celldm(3)=    0.00000
     celldm(4)=    0.00000  celldm(5)=    0.00000  celldm(6)=    0.00000

     crystal axes: (cart. coord. in units of alat)
               a(1) = (  0.0000 -0.3992  0.5787 )  
               a(2) = (  0.3458  0.1996  0.5787 )  
               a(3) = ( -0.3458  0.1996  0.5787 )  

     reciprocal axes: (cart. coord. in units 2 pi/alat)
               b(1) = (  0.0000 -1.6698  0.5760 )  
               b(2) = (  1.4461  0.8349  0.5760 )  
               b(3) = ( -1.4461  0.8349  0.5760 )  


     Atoms inside the unit cell: 

   Cartesian axes

     site n.  atom      mass           positions (alat units)
        1        Ge  72.6300   tau( 1) = (    0.00000    0.00000    0.01051  )
        2        Te 127.6000   tau( 2) = (    0.00000    0.00000    0.84014  )

     Computing dynamical matrix for 
                    q = (   0.0000000   0.0000000   0.0000000 )
 
      7 Sym.Ops. (with q -> -q+G )


     G cutoff = 1959.3264  (   7256 G-vectors)     FFT grid: ( 64, 64, 64)
     G cutoff =  653.1088  (   1392 G-vectors)  smooth grid: ( 36, 36, 36)
     number of k points=   189

     PseudoPot. # 1 for Ge read from file:
     /work/02599/asmiller/pseudo/gbrv/pbe_GBRV/ge_pbe_v1.uspp.F.UPF
     MD5 check sum: 48aaa9fc4bb44e29d138cf8697c43b9a
     Pseudo is Ultrasoft + core correction, Zval = 14.0
     Generated by new atomic code, or converted to UPF format
     Using radial grid of  873 points,  6 beta functions with: 
                l(1) =   0
                l(2) =   0
                l(3) =   1
                l(4) =   1
                l(5) =   2
                l(6) =   2
     Q(r) pseudized with  8 coefficients,  rinner =    1.400   1.400   1.400
                                                       1.400   1.400

     PseudoPot. # 2 for Te read from file:
     /work/02599/asmiller/pseudo/gbrv/pbe_GBRV/te_pbe_v1.uspp.F.UPF
     MD5 check sum: 749656373d74338a59c146dbd702c29e
     Pseudo is Ultrasoft + core correction, Zval =  6.0
     Generated by new atomic code, or converted to UPF format
     Using radial grid of  891 points,  5 beta functions with: 
                l(1) =   0
                l(2) =   0
                l(3) =   1
                l(4) =   1
                l(5) =   2
     Q(r) pseudized with  6 coefficients,  rinner =    1.800   1.800   1.800
                                                       1.800   1.800


     Electric field:
     Dielectric constant
     Born effective charges in two ways 


     Atomic displacements:
     There are   4 irreducible representations

     Representation     1      1 modes -A_1  L_1 To be done

     Representation     2      1 modes -A_1  L_1 To be done

     Representation     3      2 modes -E    L_3 To be done

     Representation     4      2 modes -E    L_3 To be done



     Alpha used in Ewald sum =   2.8000
     PHONON       :     6.46s CPU         8.90s WALL


     Electric Fields Calculation

      iter #   1 total cpu time :    40.9 secs   av.it.:   6.8
      thresh= 0.100E-01 alpha_mix =  0.700 |ddv_scf|^2 =  0.200E-06

      iter #   2 total cpu time :    56.9 secs   av.it.:  16.3
      thresh= 0.447E-04 alpha_mix =  0.700 |ddv_scf|^2 =  0.999E-07

      iter #   3 total cpu time :    72.0 secs   av.it.:  14.8
      thresh= 0.316E-04 alpha_mix =  0.700 |ddv_scf|^2 =  0.679E-09

      iter #   4 total cpu time :    88.1 secs   av.it.:  16.3
      thresh= 0.261E-05 alpha_mix =  0.700 |ddv_scf|^2 =  0.289E-10

      iter #   5 total cpu time :   104.4 secs   av.it.:  16.3
      thresh= 0.538E-06 alpha_mix =  0.700 |ddv_scf|^2 =  0.114E-11

      iter #   6 total cpu time :   119.6 secs   av.it.:  15.4
      thresh= 0.107E-06 alpha_mix =  0.700 |ddv_scf|^2 =  0.404E-13

      iter #   7 total cpu time :   135.2 secs   av.it.:  15.8
      thresh= 0.201E-07 alpha_mix =  0.700 |ddv_scf|^2 =  0.131E-14

      iter #   8 total cpu time :   151.0 secs   av.it.:  16.3
      thresh= 0.362E-08 alpha_mix =  0.700 |ddv_scf|^2 =  0.151E-16

     End of electric fields calculation

          Dielectric constant in cartesian axis 

          (      65.635543629       0.000000000       0.000000000 )
          (       0.000000000      65.635543773       0.000000000 )
          (       0.000000000       0.000000000      75.990497512 )

          Effective charges (d Force / dE) in cartesian axis

           atom      1   Ge 
      Ex  (        6.75903        0.00000        0.00000 )
      Ey  (        0.00000        6.75903        0.00000 )
      Ez  (        0.00000        0.00000        4.86715 )
           atom      2   Te 
      Ex  (       -7.19615        0.00000        0.00000 )
      Ey  (        0.00000       -7.19615        0.00000 )
      Ez  (        0.00000        0.00000       -4.90017 )


     Representation #  1 mode #   1

     Self-consistent Calculation

      iter #   1 total cpu time :   159.7 secs   av.it.:   8.5
      thresh= 0.100E-01 alpha_mix =  0.700 |ddv_scf|^2 =  0.741E-05

      iter #   2 total cpu time :   164.2 secs   av.it.:  13.1
      thresh= 0.272E-03 alpha_mix =  0.700 |ddv_scf|^2 =  0.830E-06

      iter #   3 total cpu time :   168.7 secs   av.it.:  13.0
      thresh= 0.911E-04 alpha_mix =  0.700 |ddv_scf|^2 =  0.745E-08

      iter #   4 total cpu time :   173.4 secs   av.it.:  13.5
      thresh= 0.863E-05 alpha_mix =  0.700 |ddv_scf|^2 =  0.638E-09

      iter #   5 total cpu time :   178.2 secs   av.it.:  13.9
      thresh= 0.253E-05 alpha_mix =  0.700 |ddv_scf|^2 =  0.146E-09

      iter #   6 total cpu time :   182.7 secs   av.it.:  12.9
      thresh= 0.121E-05 alpha_mix =  0.700 |ddv_scf|^2 =  0.126E-11

      iter #   7 total cpu time :   187.3 secs   av.it.:  13.2
      thresh= 0.112E-06 alpha_mix =  0.700 |ddv_scf|^2 =  0.896E-13

      iter #   8 total cpu time :   191.9 secs   av.it.:  13.1
      thresh= 0.299E-07 alpha_mix =  0.700 |ddv_scf|^2 =  0.651E-15

      iter #   9 total cpu time :   196.4 secs   av.it.:  12.9
      thresh= 0.255E-08 alpha_mix =  0.700 |ddv_scf|^2 =  0.266E-16

     End of self-consistent calculation

     Convergence has been achieved 


     Representation #  2 mode #   2

     Self-consistent Calculation

      iter #   1 total cpu time :   199.5 secs   av.it.:   5.0
      thresh= 0.100E-01 alpha_mix =  0.700 |ddv_scf|^2 =  0.546E-07

      iter #   2 total cpu time :   204.1 secs   av.it.:  13.2
      thresh= 0.234E-04 alpha_mix =  0.700 |ddv_scf|^2 =  0.746E-08

      iter #   3 total cpu time :   208.7 secs   av.it.:  13.4
      thresh= 0.864E-05 alpha_mix =  0.700 |ddv_scf|^2 =  0.946E-09

      iter #   4 total cpu time :   213.3 secs   av.it.:  13.1
      thresh= 0.308E-05 alpha_mix =  0.700 |ddv_scf|^2 =  0.117E-09

      iter #   5 total cpu time :   217.9 secs   av.it.:  13.1
      thresh= 0.108E-05 alpha_mix =  0.700 |ddv_scf|^2 =  0.290E-12

      iter #   6 total cpu time :   222.4 secs   av.it.:  12.9
      thresh= 0.538E-07 alpha_mix =  0.700 |ddv_scf|^2 =  0.144E-13

      iter #   7 total cpu time :   227.1 secs   av.it.:  13.6
      thresh= 0.120E-07 alpha_mix =  0.700 |ddv_scf|^2 =  0.432E-15

      iter #   8 total cpu time :   231.8 secs   av.it.:  13.7
      thresh= 0.208E-08 alpha_mix =  0.700 |ddv_scf|^2 =  0.692E-17

     End of self-consistent calculation

     Convergence has been achieved 


     Representation #  3 modes #   3  4

     Self-consistent Calculation

      iter #   1 total cpu time :   237.1 secs   av.it.:   4.9
      thresh= 0.100E-01 alpha_mix =  0.700 |ddv_scf|^2 =  0.118E-07

      iter #   2 total cpu time :   247.0 secs   av.it.:  14.3
      thresh= 0.109E-04 alpha_mix =  0.700 |ddv_scf|^2 =  0.981E-09

      iter #   3 total cpu time :   256.5 secs   av.it.:  14.0
      thresh= 0.313E-05 alpha_mix =  0.700 |ddv_scf|^2 =  0.683E-10

      iter #   4 total cpu time :   266.2 secs   av.it.:  14.1
      thresh= 0.826E-06 alpha_mix =  0.700 |ddv_scf|^2 =  0.187E-12

      iter #   5 total cpu time :   276.0 secs   av.it.:  14.7
      thresh= 0.433E-07 alpha_mix =  0.700 |ddv_scf|^2 =  0.120E-13

      iter #   6 total cpu time :   285.9 secs   av.it.:  14.8
      thresh= 0.109E-07 alpha_mix =  0.700 |ddv_scf|^2 =  0.595E-16

     End of self-consistent calculation

     Convergence has been achieved 


     Representation #  4 modes #   5  6

     Self-consistent Calculation

      iter #   1 total cpu time :   293.5 secs   av.it.:   8.4
      thresh= 0.100E-01 alpha_mix =  0.700 |ddv_scf|^2 =  0.182E-05

      iter #   2 total cpu time :   303.1 secs   av.it.:  14.1
      thresh= 0.135E-03 alpha_mix =  0.700 |ddv_scf|^2 =  0.196E-06

      iter #   3 total cpu time :   312.7 secs   av.it.:  14.1
      thresh= 0.443E-04 alpha_mix =  0.700 |ddv_scf|^2 =  0.178E-08

      iter #   4 total cpu time :   322.7 secs   av.it.:  15.0
      thresh= 0.422E-05 alpha_mix =  0.700 |ddv_scf|^2 =  0.764E-10

      iter #   5 total cpu time :   332.9 secs   av.it.:  15.0
      thresh= 0.874E-06 alpha_mix =  0.700 |ddv_scf|^2 =  0.758E-12

      iter #   6 total cpu time :   342.4 secs   av.it.:  14.0
      thresh= 0.871E-07 alpha_mix =  0.700 |ddv_scf|^2 =  0.116E-13

      iter #   7 total cpu time :   351.9 secs   av.it.:  13.9
      thresh= 0.108E-07 alpha_mix =  0.700 |ddv_scf|^2 =  0.233E-15

      iter #   8 total cpu time :   361.7 secs   av.it.:  14.6
      thresh= 0.153E-08 alpha_mix =  0.700 |ddv_scf|^2 =  0.254E-17

     End of self-consistent calculation

     Convergence has been achieved 
 
     Number of q in the star =    1
     List of q in the star:
          1   0.000000000   0.000000000   0.000000000

          Dielectric constant in cartesian axis 

          (      65.635543629       0.000000000       0.000000000 )
          (       0.000000000      65.635543773       0.000000000 )
          (       0.000000000       0.000000000      75.990497512 )

          Effective charges (d Force / dE) in cartesian axis

           atom      1   Ge 
      Ex  (        6.75903        0.00000        0.00000 )
      Ey  (        0.00000        6.75903        0.00000 )
      Ez  (        0.00000        0.00000        4.86715 )
           atom      2   Te 
      Ex  (       -7.19615        0.00000        0.00000 )
      Ey  (        0.00000       -7.19615        0.00000 )
      Ez  (        0.00000        0.00000       -4.90017 )

          Effective charges (d P / du) in cartesian axis 

           atom      1   Ge 
      Px  (        7.01149        0.00000        0.00000 )
      Py  (        0.00000        7.01149        0.00000 )
      Pz  (        0.00000        0.00000        4.81915 )
           atom      2   Te 
      Px  (       -6.95399        0.00000        0.00000 )
      Py  (        0.00000       -6.95399        0.00000 )
      Pz  (        0.00000        0.00000       -4.96163 )

     Diagonalizing the dynamical matrix

     q = (    0.000000000   0.000000000   0.000000000 ) 

 **************************************************************************
     omega( 1) =       0.064622 [THz] =       2.155567 [cm-1]
     omega( 2) =       0.064622 [THz] =       2.155567 [cm-1]
     omega( 3) =       0.090285 [THz] =       3.011590 [cm-1]
     omega( 4) =       2.157719 [THz] =      71.973749 [cm-1]
     omega( 5) =       2.157719 [THz] =      71.973749 [cm-1]
     omega( 6) =       3.516683 [THz] =     117.303934 [cm-1]
 **************************************************************************

     Mode symmetry, C_3v (3m)   point group:

     omega(  1 -  2) =          2.2  [cm-1]   --> E    L_3        I+R
     omega(  3 -  3) =          3.0  [cm-1]   --> A_1  L_1        I+R
     omega(  4 -  5) =         72.0  [cm-1]   --> E    L_3        I+R
     omega(  6 -  6) =        117.3  [cm-1]   --> A_1  L_1        I+R

 **************************************************************************

     Calculation of q =   -0.2410168   0.1391511   0.0960050
 
     Parallelization info
     --------------------
     sticks:   dense  smooth     PW     G-vecs:    dense   smooth      PW
     Min         217      71     22                 7255     1385     245
     Max         218      72     23                 7257     1406     247
     Sum        2613     859    273                87069    16727    2951
 


     bravais-lattice index     =            0
     lattice parameter (alat)  =      11.3542  a.u.
     unit-cell volume          =     350.7842 (a.u.)^3
     number of atoms/cell      =            2
     number of atomic types    =            2
     number of electrons       =        20.00
     number of Kohn-Sham states=           10
     kinetic-energy cutoff     =      50.0000  Ry
     charge density cutoff     =     600.0000  Ry
     Exchange-correlation      = PBESOL ( 1 410 8 0)
     EXX-fraction              =        0.00

     celldm(1)=  11.354229  celldm(2)=   0.000000  celldm(3)=   0.000000
     celldm(4)=   0.000000  celldm(5)=   0.000000  celldm(6)=   0.000000

     crystal axes: (cart. coord. in units of alat)
               a(1) = (   0.000000  -0.399246   0.578674 )  
               a(2) = (   0.345757   0.199623   0.578674 )  
               a(3) = (  -0.345757   0.199623   0.578674 )  

     reciprocal axes: (cart. coord. in units 2 pi/alat)
               b(1) = (  0.000000 -1.669813  0.576030 )  
               b(2) = (  1.446101  0.834907  0.576030 )  
               b(3) = ( -1.446101  0.834907  0.576030 )  


     PseudoPot. # 1 for Ge read from file:
     /work/02599/asmiller/pseudo/gbrv/pbe_GBRV/ge_pbe_v1.uspp.F.UPF
     MD5 check sum: 48aaa9fc4bb44e29d138cf8697c43b9a
     Pseudo is Ultrasoft + core correction, Zval = 14.0
     Generated by new atomic code, or converted to UPF format
     Using radial grid of  873 points,  6 beta functions with: 
                l(1) =   0
                l(2) =   0
                l(3) =   1
                l(4) =   1
                l(5) =   2
                l(6) =   2
     Q(r) pseudized with  8 coefficients,  rinner =    1.400   1.400   1.400
                                                       1.400   1.400

     PseudoPot. # 2 for Te read from file:
     /work/02599/asmiller/pseudo/gbrv/pbe_GBRV/te_pbe_v1.uspp.F.UPF
     MD5 check sum: 749656373d74338a59c146dbd702c29e
     Pseudo is Ultrasoft + core correction, Zval =  6.0
     Generated by new atomic code, or converted to UPF format
     Using radial grid of  891 points,  5 beta functions with: 
                l(1) =   0
                l(2) =   0
                l(3) =   1
                l(4) =   1
                l(5) =   2
     Q(r) pseudized with  6 coefficients,  rinner =    1.800   1.800   1.800
                                                       1.800   1.800

     atomic species   valence    mass     pseudopotential
        Ge            14.00    72.63000     Ge( 1.00)
        Te             6.00   127.60000     Te( 1.00)

      6 Sym. Ops. (no inversion) found



   Cartesian axes

     site n.     atom                  positions (alat units)
         1           Ge  tau(   1) = (   0.0000000   0.0000000   0.0105077  )
         2           Te  tau(   2) = (   0.0000000   0.0000000   0.8401424  )

     number of k points=  1872

     Number of k-points >= 100: set verbosity='high' to print them.

     Dense  grid:    87069 G-vectors     FFT dimensions: (  64,  64,  64)

     Smooth grid:    16727 G-vectors     FFT dimensions: (  36,  36,  36)

     Largest allocated arrays     est. size (Mb)     dimensions
        Kohn-Sham Wavefunctions         0.03 Mb     (    184,   10)
        NL pseudopotentials             0.09 Mb     (    184,   31)
        Each V/rho on FFT grid          0.38 Mb     (  24576)
        Each G-vector array             0.06 Mb     (   7256)
        G-vector shells                 0.05 Mb     (   6263)
     Largest temporary arrays     est. size (Mb)     dimensions
        Auxiliary wavefunctions         0.11 Mb     (    184,   40)
        Each subspace H/S matrix        0.02 Mb     (  40,  40)
        Each <psi_i|beta_j> matrix      0.00 Mb     (     31,   10)

     Check: negative/imaginary core charge=   -0.000002    0.000000

     The potential is recalculated from file :
     ./_ph0/GeTe_d.save/charge-density.dat

     Starting wfc are   13 atomic wfcs

     total cpu time spent up to now is        1.7 secs

     per-process dynamical memory:    57.6 Mb

     Band Structure Calculation
     Davidson diagonalization with overlap

     ethr =  5.00E-11,  avg # of iterations = 16.1

     total cpu time spent up to now is       48.3 secs

     End of band structure calculation

     Number of k-points >= 100: set verbosity='high' to print the bands.

     Writing output data file GeTe_d.save

                                                                                

     bravais-lattice index     =            0
     lattice parameter (alat)  =      11.3542  a.u.
     unit-cell volume          =     350.7842 (a.u.)^3
     number of atoms/cell      =            2
     number of atomic types    =            2
     kinetic-energy cut-off    =      50.0000  Ry
     charge density cut-off    =     600.0000  Ry
     convergence threshold     =      1.0E-16
     beta                      =       0.7000
     number of iterations used =            4
     Exchange-correlation      = PBESOL ( 1 410 8 0)
     EXX-fraction              =        0.00


     celldm(1)=   11.35423  celldm(2)=    0.00000  celldm(3)=    0.00000
     celldm(4)=    0.00000  celldm(5)=    0.00000  celldm(6)=    0.00000

     crystal axes: (cart. coord. in units of alat)
               a(1) = (  0.0000 -0.3992  0.5787 )  
               a(2) = (  0.3458  0.1996  0.5787 )  
               a(3) = ( -0.3458  0.1996  0.5787 )  

     reciprocal axes: (cart. coord. in units 2 pi/alat)
               b(1) = (  0.0000 -1.6698  0.5760 )  
               b(2) = (  1.4461  0.8349  0.5760 )  
               b(3) = ( -1.4461  0.8349  0.5760 )  


     Atoms inside the unit cell: 

   Cartesian axes

     site n.  atom      mass           positions (alat units)
        1        Ge  72.6300   tau( 1) = (    0.00000    0.00000    0.01051  )
        2        Te 127.6000   tau( 2) = (    0.00000    0.00000    0.84014  )

     Computing dynamical matrix for 
                    q = (  -0.2410168   0.1391511   0.0960050 )
 
      2 Sym.Ops. (no q -> -q+G )


     G cutoff = 1959.3264  (   7256 G-vectors)     FFT grid: ( 64, 64, 64)
     G cutoff =  653.1088  (   1390 G-vectors)  smooth grid: ( 36, 36, 36)
     number of k points=  1872

     PseudoPot. # 1 for Ge read from file:
     /work/02599/asmiller/pseudo/gbrv/pbe_GBRV/ge_pbe_v1.uspp.F.UPF
     MD5 check sum: 48aaa9fc4bb44e29d138cf8697c43b9a
     Pseudo is Ultrasoft + core correction, Zval = 14.0
     Generated by new atomic code, or converted to UPF format
     Using radial grid of  873 points,  6 beta functions with: 
                l(1) =   0
                l(2) =   0
                l(3) =   1
                l(4) =   1
                l(5) =   2
                l(6) =   2
     Q(r) pseudized with  8 coefficients,  rinner =    1.400   1.400   1.400
                                                       1.400   1.400

     PseudoPot. # 2 for Te read from file:
     /work/02599/asmiller/pseudo/gbrv/pbe_GBRV/te_pbe_v1.uspp.F.UPF
     MD5 check sum: 749656373d74338a59c146dbd702c29e
     Pseudo is Ultrasoft + core correction, Zval =  6.0
     Generated by new atomic code, or converted to UPF format
     Using radial grid of  891 points,  5 beta functions with: 
                l(1) =   0
                l(2) =   0
                l(3) =   1
                l(4) =   1
                l(5) =   2
     Q(r) pseudized with  6 coefficients,  rinner =    1.800   1.800   1.800
                                                       1.800   1.800


     Atomic displacements:
     There are   6 irreducible representations

     Representation     1      1 modes -A' To be done

     Representation     2      1 modes -A' To be done

     Representation     3      1 modes -A' To be done

     Representation     4      1 modes -A' To be done

     Representation     5      1 modes -A'' To be done

     Representation     6      1 modes -A'' To be done



     Alpha used in Ewald sum =   2.8000
     PHONON       :  6m45.89s CPU     7m 2.16s WALL



     Representation #  1 mode #   1

     Self-consistent Calculation

      iter #   1 total cpu time :   438.1 secs   av.it.:   8.7
      thresh= 0.100E-01 alpha_mix =  0.700 |ddv_scf|^2 =  0.374E-02

      iter #   2 total cpu time :   457.3 secs   av.it.:  11.3
      thresh= 0.612E-02 alpha_mix =  0.700 |ddv_scf|^2 =  0.715E+00

      iter #   3 total cpu time :   475.3 secs   av.it.:  10.5
      thresh= 0.100E-01 alpha_mix =  0.700 |ddv_scf|^2 =  0.126E-05

      iter #   4 total cpu time :   497.5 secs   av.it.:  13.7
      thresh= 0.112E-03 alpha_mix =  0.700 |ddv_scf|^2 =  0.947E-06

      iter #   5 total cpu time :   518.2 secs   av.it.:  12.5
      thresh= 0.973E-04 alpha_mix =  0.700 |ddv_scf|^2 =  0.117E-07

      iter #   6 total cpu time :   539.9 secs   av.it.:  13.3
      thresh= 0.108E-04 alpha_mix =  0.700 |ddv_scf|^2 =  0.105E-06

      iter #   7 total cpu time :   553.7 secs   av.it.:   7.4
      thresh= 0.324E-04 alpha_mix =  0.700 |ddv_scf|^2 =  0.634E-08

      iter #   8 total cpu time :   572.7 secs   av.it.:  11.3
      thresh= 0.796E-05 alpha_mix =  0.700 |ddv_scf|^2 =  0.125E-10

      iter #   9 total cpu time :   593.6 secs   av.it.:  12.6
      thresh= 0.353E-06 alpha_mix =  0.700 |ddv_scf|^2 =  0.851E-11

      iter #  10 total cpu time :   612.6 secs   av.it.:  11.3
      thresh= 0.292E-06 alpha_mix =  0.700 |ddv_scf|^2 =  0.531E-12

      iter #  11 total cpu time :   630.7 secs   av.it.:  10.6
      thresh= 0.729E-07 alpha_mix =  0.700 |ddv_scf|^2 =  0.194E-14

      iter #  12 total cpu time :   652.7 secs   av.it.:  13.5
      thresh= 0.441E-08 alpha_mix =  0.700 |ddv_scf|^2 =  0.859E-15

      iter #  13 total cpu time :   672.3 secs   av.it.:  11.7
      thresh= 0.293E-08 alpha_mix =  0.700 |ddv_scf|^2 =  0.139E-13

      iter #  14 total cpu time :   688.2 secs   av.it.:   9.0
      thresh= 0.118E-07 alpha_mix =  0.700 |ddv_scf|^2 =  0.168E-16

     End of self-consistent calculation

     Convergence has been achieved 


     Representation #  2 mode #   2

     Self-consistent Calculation

      iter #   1 total cpu time :   700.7 secs   av.it.:   6.0
      thresh= 0.100E-01 alpha_mix =  0.700 |ddv_scf|^2 =  0.222E-02

      iter #   2 total cpu time :   719.7 secs   av.it.:  11.2
      thresh= 0.471E-02 alpha_mix =  0.700 |ddv_scf|^2 =  0.424E+00

      iter #   3 total cpu time :   737.2 secs   av.it.:  10.1
      thresh= 0.100E-01 alpha_mix =  0.700 |ddv_scf|^2 =  0.463E-06

      iter #   4 total cpu time :   757.5 secs   av.it.:  12.2
      thresh= 0.681E-04 alpha_mix =  0.700 |ddv_scf|^2 =  0.220E-07

      iter #   5 total cpu time :   778.9 secs   av.it.:  13.1
      thresh= 0.148E-04 alpha_mix =  0.700 |ddv_scf|^2 =  0.506E-08

      iter #   6 total cpu time :   797.4 secs   av.it.:  11.0
      thresh= 0.712E-05 alpha_mix =  0.700 |ddv_scf|^2 =  0.386E-08

      iter #   7 total cpu time :   811.7 secs   av.it.:   7.8
      thresh= 0.621E-05 alpha_mix =  0.700 |ddv_scf|^2 =  0.365E-09

      iter #   8 total cpu time :   830.6 secs   av.it.:  11.3
      thresh= 0.191E-05 alpha_mix =  0.700 |ddv_scf|^2 =  0.331E-10

      iter #   9 total cpu time :   849.6 secs   av.it.:  11.3
      thresh= 0.575E-06 alpha_mix =  0.700 |ddv_scf|^2 =  0.520E-12

      iter #  10 total cpu time :   867.1 secs   av.it.:  10.3
      thresh= 0.721E-07 alpha_mix =  0.700 |ddv_scf|^2 =  0.164E-13

      iter #  11 total cpu time :   885.4 secs   av.it.:  10.7
      thresh= 0.128E-07 alpha_mix =  0.700 |ddv_scf|^2 =  0.930E-15

      iter #  12 total cpu time :   904.7 secs   av.it.:  11.5
      thresh= 0.305E-08 alpha_mix =  0.700 |ddv_scf|^2 =  0.714E-16

     End of self-consistent calculation

     Convergence has been achieved 


     Representation #  3 mode #   3

     Self-consistent Calculation

      iter #   1 total cpu time :   915.8 secs   av.it.:   5.2
      thresh= 0.100E-01 alpha_mix =  0.700 |ddv_scf|^2 =  0.456E-04

      iter #   2 total cpu time :   934.8 secs   av.it.:  11.3
      thresh= 0.675E-03 alpha_mix =  0.700 |ddv_scf|^2 =  0.871E-02

      iter #   3 total cpu time :   948.1 secs   av.it.:   7.0
      thresh= 0.933E-02 alpha_mix =  0.700 |ddv_scf|^2 =  0.110E-07

      iter #   4 total cpu time :   970.7 secs   av.it.:  14.0
      thresh= 0.105E-04 alpha_mix =  0.700 |ddv_scf|^2 =  0.728E-08

      iter #   5 total cpu time :   991.8 secs   av.it.:  12.6
      thresh= 0.853E-05 alpha_mix =  0.700 |ddv_scf|^2 =  0.287E-08

      iter #   6 total cpu time :  1008.5 secs   av.it.:   9.6
      thresh= 0.536E-05 alpha_mix =  0.700 |ddv_scf|^2 =  0.113E-07

      iter #   7 total cpu time :  1025.7 secs   av.it.:   9.9
      thresh= 0.106E-04 alpha_mix =  0.700 |ddv_scf|^2 =  0.830E-11

      iter #   8 total cpu time :  1048.5 secs   av.it.:  14.0
      thresh= 0.288E-06 alpha_mix =  0.700 |ddv_scf|^2 =  0.195E-10

      iter #   9 total cpu time :  1067.6 secs   av.it.:  11.4
      thresh= 0.442E-06 alpha_mix =  0.700 |ddv_scf|^2 =  0.130E-10

      iter #  10 total cpu time :  1086.3 secs   av.it.:  11.2
      thresh= 0.361E-06 alpha_mix =  0.700 |ddv_scf|^2 =  0.216E-12

      iter #  11 total cpu time :  1107.0 secs   av.it.:  12.5
      thresh= 0.464E-07 alpha_mix =  0.700 |ddv_scf|^2 =  0.188E-12

      iter #  12 total cpu time :  1126.0 secs   av.it.:  11.4
      thresh= 0.434E-07 alpha_mix =  0.700 |ddv_scf|^2 =  0.647E-12

      iter #  13 total cpu time :  1141.0 secs   av.it.:   8.3
      thresh= 0.805E-07 alpha_mix =  0.700 |ddv_scf|^2 =  0.536E-14

      iter #  14 total cpu time :  1160.1 secs   av.it.:  11.4
      thresh= 0.732E-08 alpha_mix =  0.700 |ddv_scf|^2 =  0.661E-16

     End of self-consistent calculation

     Convergence has been achieved 


     Representation #  4 mode #   4

     Self-consistent Calculation

      iter #   1 total cpu time :  1176.6 secs   av.it.:   9.0
      thresh= 0.100E-01 alpha_mix =  0.700 |ddv_scf|^2 =  0.957E-02

      iter #   2 total cpu time :  1195.7 secs   av.it.:  11.3
      thresh= 0.978E-02 alpha_mix =  0.700 |ddv_scf|^2 =  0.183E+01

      iter #   3 total cpu time :  1214.6 secs   av.it.:  11.2
      thresh= 0.100E-01 alpha_mix =  0.700 |ddv_scf|^2 =  0.328E-05

      iter #   4 total cpu time :  1236.3 secs   av.it.:  13.3
      thresh= 0.181E-03 alpha_mix =  0.700 |ddv_scf|^2 =  0.171E-05

      iter #   5 total cpu time :  1256.9 secs   av.it.:  12.5
      thresh= 0.131E-03 alpha_mix =  0.700 |ddv_scf|^2 =  0.273E-07

      iter #   6 total cpu time :  1278.1 secs   av.it.:  12.8
      thresh= 0.165E-04 alpha_mix =  0.700 |ddv_scf|^2 =  0.622E-06

      iter #   7 total cpu time :  1293.4 secs   av.it.:   8.6
      thresh= 0.788E-04 alpha_mix =  0.700 |ddv_scf|^2 =  0.915E-08

      iter #   8 total cpu time :  1312.0 secs   av.it.:  11.1
      thresh= 0.957E-05 alpha_mix =  0.700 |ddv_scf|^2 =  0.485E-10

      iter #   9 total cpu time :  1331.4 secs   av.it.:  11.6
      thresh= 0.697E-06 alpha_mix =  0.700 |ddv_scf|^2 =  0.976E-11

      iter #  10 total cpu time :  1350.6 secs   av.it.:  11.4
      thresh= 0.312E-06 alpha_mix =  0.700 |ddv_scf|^2 =  0.232E-12

      iter #  11 total cpu time :  1369.2 secs   av.it.:  11.0
      thresh= 0.481E-07 alpha_mix =  0.700 |ddv_scf|^2 =  0.306E-14

      iter #  12 total cpu time :  1390.2 secs   av.it.:  12.7
      thresh= 0.553E-08 alpha_mix =  0.700 |ddv_scf|^2 =  0.769E-15

      iter #  13 total cpu time :  1410.3 secs   av.it.:  12.1
      thresh= 0.277E-08 alpha_mix =  0.700 |ddv_scf|^2 =  0.141E-13

      iter #  14 total cpu time :  1426.1 secs   av.it.:   9.0
      thresh= 0.119E-07 alpha_mix =  0.700 |ddv_scf|^2 =  0.562E-16

     End of self-consistent calculation

     Convergence has been achieved 


     Representation #  5 mode #   5

     Self-consistent Calculation

      iter #   1 total cpu time :  1437.0 secs   av.it.:   5.0
      thresh= 0.100E-01 alpha_mix =  0.700 |ddv_scf|^2 =  0.527E-07

      iter #   2 total cpu time :  1459.0 secs   av.it.:  13.4
      thresh= 0.230E-04 alpha_mix =  0.700 |ddv_scf|^2 =  0.414E-08

      iter #   3 total cpu time :  1481.2 secs   av.it.:  13.5
      thresh= 0.643E-05 alpha_mix =  0.700 |ddv_scf|^2 =  0.272E-09

      iter #   4 total cpu time :  1503.3 secs   av.it.:  13.5
      thresh= 0.165E-05 alpha_mix =  0.700 |ddv_scf|^2 =  0.142E-11

      iter #   5 total cpu time :  1525.7 secs   av.it.:  13.8
      thresh= 0.119E-06 alpha_mix =  0.700 |ddv_scf|^2 =  0.826E-13

      iter #   6 total cpu time :  1548.2 secs   av.it.:  13.8
      thresh= 0.287E-07 alpha_mix =  0.700 |ddv_scf|^2 =  0.182E-14

      iter #   7 total cpu time :  1570.6 secs   av.it.:  13.8
      thresh= 0.426E-08 alpha_mix =  0.700 |ddv_scf|^2 =  0.295E-16

     End of self-consistent calculation

     Convergence has been achieved 


     Representation #  6 mode #   6

     Self-consistent Calculation

      iter #   1 total cpu time :  1586.3 secs   av.it.:   8.4
      thresh= 0.100E-01 alpha_mix =  0.700 |ddv_scf|^2 =  0.744E-05

      iter #   2 total cpu time :  1607.9 secs   av.it.:  13.2
      thresh= 0.273E-03 alpha_mix =  0.700 |ddv_scf|^2 =  0.840E-06

      iter #   3 total cpu time :  1629.4 secs   av.it.:  13.1
      thresh= 0.916E-04 alpha_mix =  0.700 |ddv_scf|^2 =  0.750E-08

      iter #   4 total cpu time :  1651.9 secs   av.it.:  13.9
      thresh= 0.866E-05 alpha_mix =  0.700 |ddv_scf|^2 =  0.321E-09

      iter #   5 total cpu time :  1674.0 secs   av.it.:  13.5
      thresh= 0.179E-05 alpha_mix =  0.700 |ddv_scf|^2 =  0.358E-11

      iter #   6 total cpu time :  1695.9 secs   av.it.:  13.4
      thresh= 0.189E-06 alpha_mix =  0.700 |ddv_scf|^2 =  0.123E-12

      iter #   7 total cpu time :  1716.7 secs   av.it.:  12.6
      thresh= 0.350E-07 alpha_mix =  0.700 |ddv_scf|^2 =  0.187E-14

      iter #   8 total cpu time :  1739.2 secs   av.it.:  13.8
      thresh= 0.432E-08 alpha_mix =  0.700 |ddv_scf|^2 =  0.188E-16

     End of self-consistent calculation

     Convergence has been achieved 
 
     Number of q in the star =    3
     List of q in the star:
          1  -0.241016795   0.139151112   0.096005000
          2   0.241016795   0.139151112   0.096005000
          3   0.000000000  -0.278302223   0.096005000
     In addition there is the -q list: 
          1   0.241016795  -0.139151112  -0.096005000
          2  -0.241016795  -0.139151112  -0.096005000
          3   0.000000000   0.278302223  -0.096005000

     Diagonalizing the dynamical matrix

     q = (   -0.241016795   0.139151112   0.096005000 ) 

 **************************************************************************
     omega( 1) =       1.224732 [THz] =      40.852671 [cm-1]
     omega( 2) =       1.246741 [THz] =      41.586813 [cm-1]
     omega( 3) =       1.648152 [THz] =      54.976441 [cm-1]
     omega( 4) =       3.588104 [THz] =     119.686276 [cm-1]
     omega( 5) =       3.963590 [THz] =     132.211118 [cm-1]
     omega( 6) =       4.929877 [THz] =     164.442980 [cm-1]
 **************************************************************************

     Mode symmetry, C_s (m)     point group:

     omega(  1 -  1) =         40.9  [cm-1]   --> A''                
     omega(  2 -  2) =         41.6  [cm-1]   --> A'                 
     omega(  3 -  3) =         55.0  [cm-1]   --> A'                 
     omega(  4 -  4) =        119.7  [cm-1]   --> A''                
     omega(  5 -  5) =        132.2  [cm-1]   --> A'                 
     omega(  6 -  6) =        164.4  [cm-1]   --> A'                 

 **************************************************************************

     Calculation of q =   -0.4820336   0.2783022   0.1920100
 
     Parallelization info
     --------------------
     sticks:   dense  smooth     PW     G-vecs:    dense   smooth      PW
     Min         217      71     23                 7255     1384     252
     Max         218      72     24                 7257     1406     254
     Sum        2613     859    277                87069    16727    3035
 


     bravais-lattice index     =            0
     lattice parameter (alat)  =      11.3542  a.u.
     unit-cell volume          =     350.7842 (a.u.)^3
     number of atoms/cell      =            2
     number of atomic types    =            2
     number of electrons       =        20.00
     number of Kohn-Sham states=           10
     kinetic-energy cutoff     =      50.0000  Ry
     charge density cutoff     =     600.0000  Ry
     Exchange-correlation      = PBESOL ( 1 410 8 0)
     EXX-fraction              =        0.00

     celldm(1)=  11.354229  celldm(2)=   0.000000  celldm(3)=   0.000000
     celldm(4)=   0.000000  celldm(5)=   0.000000  celldm(6)=   0.000000

     crystal axes: (cart. coord. in units of alat)
               a(1) = (   0.000000  -0.399246   0.578674 )  
               a(2) = (   0.345757   0.199623   0.578674 )  
               a(3) = (  -0.345757   0.199623   0.578674 )  

     reciprocal axes: (cart. coord. in units 2 pi/alat)
               b(1) = (  0.000000 -1.669813  0.576030 )  
               b(2) = (  1.446101  0.834907  0.576030 )  
               b(3) = ( -1.446101  0.834907  0.576030 )  


     PseudoPot. # 1 for Ge read from file:
     /work/02599/asmiller/pseudo/gbrv/pbe_GBRV/ge_pbe_v1.uspp.F.UPF
     MD5 check sum: 48aaa9fc4bb44e29d138cf8697c43b9a
     Pseudo is Ultrasoft + core correction, Zval = 14.0
     Generated by new atomic code, or converted to UPF format
     Using radial grid of  873 points,  6 beta functions with: 
                l(1) =   0
                l(2) =   0
                l(3) =   1
                l(4) =   1
                l(5) =   2
                l(6) =   2
     Q(r) pseudized with  8 coefficients,  rinner =    1.400   1.400   1.400
                                                       1.400   1.400

     PseudoPot. # 2 for Te read from file:
     /work/02599/asmiller/pseudo/gbrv/pbe_GBRV/te_pbe_v1.uspp.F.UPF
     MD5 check sum: 749656373d74338a59c146dbd702c29e
     Pseudo is Ultrasoft + core correction, Zval =  6.0
     Generated by new atomic code, or converted to UPF format
     Using radial grid of  891 points,  5 beta functions with: 
                l(1) =   0
                l(2) =   0
                l(3) =   1
                l(4) =   1
                l(5) =   2
     Q(r) pseudized with  6 coefficients,  rinner =    1.800   1.800   1.800
                                                       1.800   1.800

     atomic species   valence    mass     pseudopotential
        Ge            14.00    72.63000     Ge( 1.00)
        Te             6.00   127.60000     Te( 1.00)

      6 Sym. Ops. (no inversion) found



   Cartesian axes

     site n.     atom                  positions (alat units)
         1           Ge  tau(   1) = (   0.0000000   0.0000000   0.0105077  )
         2           Te  tau(   2) = (   0.0000000   0.0000000   0.8401424  )

     number of k points=  1872

     Number of k-points >= 100: set verbosity='high' to print them.

     Dense  grid:    87069 G-vectors     FFT dimensions: (  64,  64,  64)

     Smooth grid:    16727 G-vectors     FFT dimensions: (  36,  36,  36)

     Largest allocated arrays     est. size (Mb)     dimensions
        Kohn-Sham Wavefunctions         0.03 Mb     (    195,   10)
        NL pseudopotentials             0.09 Mb     (    195,   31)
        Each V/rho on FFT grid          0.38 Mb     (  24576)
        Each G-vector array             0.06 Mb     (   7256)
        G-vector shells                 0.05 Mb     (   6314)
     Largest temporary arrays     est. size (Mb)     dimensions
        Auxiliary wavefunctions         0.12 Mb     (    195,   40)
        Each subspace H/S matrix        0.02 Mb     (  40,  40)
        Each <psi_i|beta_j> matrix      0.00 Mb     (     31,   10)

     Check: negative/imaginary core charge=   -0.000002    0.000000

     The potential is recalculated from file :
     ./_ph0/GeTe_d.save/charge-density.dat

     Starting wfc are   13 atomic wfcs

     total cpu time spent up to now is       52.0 secs

     per-process dynamical memory:    69.9 Mb

     Band Structure Calculation
     Davidson diagonalization with overlap

     ethr =  5.00E-11,  avg # of iterations = 16.1

     total cpu time spent up to now is       98.7 secs

     End of band structure calculation

     Number of k-points >= 100: set verbosity='high' to print the bands.

     Writing output data file GeTe_d.save

                                                                                

     bravais-lattice index     =            0
     lattice parameter (alat)  =      11.3542  a.u.
     unit-cell volume          =     350.7842 (a.u.)^3
     number of atoms/cell      =            2
     number of atomic types    =            2
     kinetic-energy cut-off    =      50.0000  Ry
     charge density cut-off    =     600.0000  Ry
     convergence threshold     =      1.0E-16
     beta                      =       0.7000
     number of iterations used =            4
     Exchange-correlation      = PBESOL ( 1 410 8 0)
     EXX-fraction              =        0.00


     celldm(1)=   11.35423  celldm(2)=    0.00000  celldm(3)=    0.00000
     celldm(4)=    0.00000  celldm(5)=    0.00000  celldm(6)=    0.00000

     crystal axes: (cart. coord. in units of alat)
               a(1) = (  0.0000 -0.3992  0.5787 )  
               a(2) = (  0.3458  0.1996  0.5787 )  
               a(3) = ( -0.3458  0.1996  0.5787 )  

     reciprocal axes: (cart. coord. in units 2 pi/alat)
               b(1) = (  0.0000 -1.6698  0.5760 )  
               b(2) = (  1.4461  0.8349  0.5760 )  
               b(3) = ( -1.4461  0.8349  0.5760 )  


     Atoms inside the unit cell: 

   Cartesian axes

     site n.  atom      mass           positions (alat units)
        1        Ge  72.6300   tau( 1) = (    0.00000    0.00000    0.01051  )
        2        Te 127.6000   tau( 2) = (    0.00000    0.00000    0.84014  )

     Computing dynamical matrix for 
                    q = (  -0.4820336   0.2783022   0.1920100 )
 
      2 Sym.Ops. (no q -> -q+G )


     G cutoff = 1959.3264  (   7256 G-vectors)     FFT grid: ( 64, 64, 64)
     G cutoff =  653.1088  (   1387 G-vectors)  smooth grid: ( 36, 36, 36)
     number of k points=  1872

     PseudoPot. # 1 for Ge read from file:
     /work/02599/asmiller/pseudo/gbrv/pbe_GBRV/ge_pbe_v1.uspp.F.UPF
     MD5 check sum: 48aaa9fc4bb44e29d138cf8697c43b9a
     Pseudo is Ultrasoft + core correction, Zval = 14.0
     Generated by new atomic code, or converted to UPF format
     Using radial grid of  873 points,  6 beta functions with: 
                l(1) =   0
                l(2) =   0
                l(3) =   1
                l(4) =   1
                l(5) =   2
                l(6) =   2
     Q(r) pseudized with  8 coefficients,  rinner =    1.400   1.400   1.400
                                                       1.400   1.400

     PseudoPot. # 2 for Te read from file:
     /work/02599/asmiller/pseudo/gbrv/pbe_GBRV/te_pbe_v1.uspp.F.UPF
     MD5 check sum: 749656373d74338a59c146dbd702c29e
     Pseudo is Ultrasoft + core correction, Zval =  6.0
     Generated by new atomic code, or converted to UPF format
     Using radial grid of  891 points,  5 beta functions with: 
                l(1) =   0
                l(2) =   0
                l(3) =   1
                l(4) =   1
                l(5) =   2
     Q(r) pseudized with  6 coefficients,  rinner =    1.800   1.800   1.800
                                                       1.800   1.800


     Atomic displacements:
     There are   6 irreducible representations

     Representation     1      1 modes -A' To be done

     Representation     2      1 modes -A' To be done

     Representation     3      1 modes -A' To be done

     Representation     4      1 modes -A' To be done

     Representation     5      1 modes -A'' To be done

     Representation     6      1 modes -A'' To be done



     Alpha used in Ewald sum =   2.8000
     PHONON       : 29m13.81s CPU    29m57.73s WALL



     Representation #  1 mode #   1

     Self-consistent Calculation

      iter #   1 total cpu time :  1813.5 secs   av.it.:   8.7
      thresh= 0.100E-01 alpha_mix =  0.700 |ddv_scf|^2 =  0.142E-03

      iter #   2 total cpu time :  1834.5 secs   av.it.:  12.6
      thresh= 0.119E-02 alpha_mix =  0.700 |ddv_scf|^2 =  0.322E-02

      iter #   3 total cpu time :  1851.6 secs   av.it.:   9.9
      thresh= 0.567E-02 alpha_mix =  0.700 |ddv_scf|^2 =  0.343E-05

      iter #   4 total cpu time :  1872.7 secs   av.it.:  12.8
      thresh= 0.185E-03 alpha_mix =  0.700 |ddv_scf|^2 =  0.464E-06

      iter #   5 total cpu time :  1893.6 secs   av.it.:  12.5
      thresh= 0.681E-04 alpha_mix =  0.700 |ddv_scf|^2 =  0.208E-07

      iter #   6 total cpu time :  1914.7 secs   av.it.:  12.8
      thresh= 0.144E-04 alpha_mix =  0.700 |ddv_scf|^2 =  0.147E-09

      iter #   7 total cpu time :  1937.1 secs   av.it.:  13.8
      thresh= 0.121E-05 alpha_mix =  0.700 |ddv_scf|^2 =  0.189E-10

      iter #   8 total cpu time :  1958.6 secs   av.it.:  13.2
      thresh= 0.435E-06 alpha_mix =  0.700 |ddv_scf|^2 =  0.584E-10

      iter #   9 total cpu time :  1977.0 secs   av.it.:  10.8
      thresh= 0.764E-06 alpha_mix =  0.700 |ddv_scf|^2 =  0.153E-10

      iter #  10 total cpu time :  1995.9 secs   av.it.:  11.3
      thresh= 0.391E-06 alpha_mix =  0.700 |ddv_scf|^2 =  0.618E-12

      iter #  11 total cpu time :  2015.8 secs   av.it.:  12.0
      thresh= 0.786E-07 alpha_mix =  0.700 |ddv_scf|^2 =  0.578E-13

      iter #  12 total cpu time :  2036.9 secs   av.it.:  12.7
      thresh= 0.240E-07 alpha_mix =  0.700 |ddv_scf|^2 =  0.671E-14

      iter #  13 total cpu time :  2058.5 secs   av.it.:  13.2
      thresh= 0.819E-08 alpha_mix =  0.700 |ddv_scf|^2 =  0.598E-15

      iter #  14 total cpu time :  2080.2 secs   av.it.:  13.2
      thresh= 0.245E-08 alpha_mix =  0.700 |ddv_scf|^2 =  0.181E-14

      iter #  15 total cpu time :  2098.5 secs   av.it.:  10.8
      thresh= 0.426E-08 alpha_mix =  0.700 |ddv_scf|^2 =  0.220E-15

      iter #  16 total cpu time :  2117.5 secs   av.it.:  11.3
      thresh= 0.148E-08 alpha_mix =  0.700 |ddv_scf|^2 =  0.179E-15

      iter #  17 total cpu time :  2136.6 secs   av.it.:  11.3
      thresh= 0.134E-08 alpha_mix =  0.700 |ddv_scf|^2 =  0.885E-18

     End of self-consistent calculation

     Convergence has been achieved 


     Representation #  2 mode #   2

     Self-consistent Calculation

      iter #   1 total cpu time :  2148.4 secs   av.it.:   5.5
      thresh= 0.100E-01 alpha_mix =  0.700 |ddv_scf|^2 =  0.690E-04

      iter #   2 total cpu time :  2168.4 secs   av.it.:  11.9
      thresh= 0.831E-03 alpha_mix =  0.700 |ddv_scf|^2 =  0.169E-02

      iter #   3 total cpu time :  2185.4 secs   av.it.:   9.8
      thresh= 0.411E-02 alpha_mix =  0.700 |ddv_scf|^2 =  0.311E-06

      iter #   4 total cpu time :  2206.4 secs   av.it.:  12.8
      thresh= 0.558E-04 alpha_mix =  0.700 |ddv_scf|^2 =  0.381E-07

      iter #   5 total cpu time :  2227.0 secs   av.it.:  12.5
      thresh= 0.195E-04 alpha_mix =  0.700 |ddv_scf|^2 =  0.272E-09

      iter #   6 total cpu time :  2248.4 secs   av.it.:  13.1
      thresh= 0.165E-05 alpha_mix =  0.700 |ddv_scf|^2 =  0.867E-11

      iter #   7 total cpu time :  2270.9 secs   av.it.:  13.9
      thresh= 0.294E-06 alpha_mix =  0.700 |ddv_scf|^2 =  0.620E-11

      iter #   8 total cpu time :  2290.9 secs   av.it.:  12.0
      thresh= 0.249E-06 alpha_mix =  0.700 |ddv_scf|^2 =  0.263E-10

      iter #   9 total cpu time :  2309.1 secs   av.it.:  10.7
      thresh= 0.513E-06 alpha_mix =  0.700 |ddv_scf|^2 =  0.302E-12

      iter #  10 total cpu time :  2327.9 secs   av.it.:  10.9
      thresh= 0.550E-07 alpha_mix =  0.700 |ddv_scf|^2 =  0.164E-14

      iter #  11 total cpu time :  2350.2 secs   av.it.:  13.7
      thresh= 0.404E-08 alpha_mix =  0.700 |ddv_scf|^2 =  0.138E-15

      iter #  12 total cpu time :  2372.9 secs   av.it.:  14.0
      thresh= 0.118E-08 alpha_mix =  0.700 |ddv_scf|^2 =  0.598E-16

     End of self-consistent calculation

     Convergence has been achieved 


     Representation #  3 mode #   3

     Self-consistent Calculation

      iter #   1 total cpu time :  2383.9 secs   av.it.:   5.1
      thresh= 0.100E-01 alpha_mix =  0.700 |ddv_scf|^2 =  0.148E-05

      iter #   2 total cpu time :  2404.2 secs   av.it.:  12.2
      thresh= 0.122E-03 alpha_mix =  0.700 |ddv_scf|^2 =  0.346E-04

      iter #   3 total cpu time :  2421.2 secs   av.it.:   9.8
      thresh= 0.588E-03 alpha_mix =  0.700 |ddv_scf|^2 =  0.147E-07

      iter #   4 total cpu time :  2443.0 secs   av.it.:  13.3
      thresh= 0.121E-04 alpha_mix =  0.700 |ddv_scf|^2 =  0.467E-08

      iter #   5 total cpu time :  2464.1 secs   av.it.:  12.8
      thresh= 0.683E-05 alpha_mix =  0.700 |ddv_scf|^2 =  0.147E-09

      iter #   6 total cpu time :  2486.0 secs   av.it.:  13.3
      thresh= 0.121E-05 alpha_mix =  0.700 |ddv_scf|^2 =  0.167E-11

      iter #   7 total cpu time :  2508.8 secs   av.it.:  14.1
      thresh= 0.129E-06 alpha_mix =  0.700 |ddv_scf|^2 =  0.425E-11

      iter #   8 total cpu time :  2527.7 secs   av.it.:  11.2
      thresh= 0.206E-06 alpha_mix =  0.700 |ddv_scf|^2 =  0.730E-11

      iter #   9 total cpu time :  2545.4 secs   av.it.:  10.4
      thresh= 0.270E-06 alpha_mix =  0.700 |ddv_scf|^2 =  0.989E-12

      iter #  10 total cpu time :  2564.4 secs   av.it.:  11.3
      thresh= 0.994E-07 alpha_mix =  0.700 |ddv_scf|^2 =  0.153E-13

      iter #  11 total cpu time :  2586.5 secs   av.it.:  13.5
      thresh= 0.124E-07 alpha_mix =  0.700 |ddv_scf|^2 =  0.639E-14

      iter #  12 total cpu time :  2607.8 secs   av.it.:  12.9
      thresh= 0.800E-08 alpha_mix =  0.700 |ddv_scf|^2 =  0.179E-15

      iter #  13 total cpu time :  2630.4 secs   av.it.:  13.9
      thresh= 0.134E-08 alpha_mix =  0.700 |ddv_scf|^2 =  0.957E-16

     End of self-consistent calculation

     Convergence has been achieved 


     Representation #  4 mode #   4

     Self-consistent Calculation

      iter #   1 total cpu time :  2646.8 secs   av.it.:   8.9
      thresh= 0.100E-01 alpha_mix =  0.700 |ddv_scf|^2 =  0.351E-03

      iter #   2 total cpu time :  2667.5 secs   av.it.:  12.5
      thresh= 0.187E-02 alpha_mix =  0.700 |ddv_scf|^2 =  0.826E-02

      iter #   3 total cpu time :  2684.6 secs   av.it.:   9.9
      thresh= 0.909E-02 alpha_mix =  0.700 |ddv_scf|^2 =  0.621E-05

      iter #   4 total cpu time :  2705.4 secs   av.it.:  12.6
      thresh= 0.249E-03 alpha_mix =  0.700 |ddv_scf|^2 =  0.612E-06

      iter #   5 total cpu time :  2726.0 secs   av.it.:  12.4
      thresh= 0.782E-04 alpha_mix =  0.700 |ddv_scf|^2 =  0.379E-07

      iter #   6 total cpu time :  2746.6 secs   av.it.:  12.4
      thresh= 0.195E-04 alpha_mix =  0.700 |ddv_scf|^2 =  0.502E-09

      iter #   7 total cpu time :  2768.1 secs   av.it.:  13.1
      thresh= 0.224E-05 alpha_mix =  0.700 |ddv_scf|^2 =  0.360E-10

      iter #   8 total cpu time :  2789.3 secs   av.it.:  12.7
      thresh= 0.600E-06 alpha_mix =  0.700 |ddv_scf|^2 =  0.587E-10

      iter #   9 total cpu time :  2807.4 secs   av.it.:  10.6
      thresh= 0.766E-06 alpha_mix =  0.700 |ddv_scf|^2 =  0.128E-10

      iter #  10 total cpu time :  2826.9 secs   av.it.:  11.7
      thresh= 0.357E-06 alpha_mix =  0.700 |ddv_scf|^2 =  0.108E-12

      iter #  11 total cpu time :  2847.7 secs   av.it.:  12.5
      thresh= 0.329E-07 alpha_mix =  0.700 |ddv_scf|^2 =  0.959E-14

      iter #  12 total cpu time :  2869.1 secs   av.it.:  13.0
      thresh= 0.979E-08 alpha_mix =  0.700 |ddv_scf|^2 =  0.218E-14

      iter #  13 total cpu time :  2890.7 secs   av.it.:  13.2
      thresh= 0.467E-08 alpha_mix =  0.700 |ddv_scf|^2 =  0.178E-15

      iter #  14 total cpu time :  2912.3 secs   av.it.:  13.2
      thresh= 0.134E-08 alpha_mix =  0.700 |ddv_scf|^2 =  0.228E-15

      iter #  15 total cpu time :  2931.3 secs   av.it.:  11.3
      thresh= 0.151E-08 alpha_mix =  0.700 |ddv_scf|^2 =  0.100E-15

      iter #  16 total cpu time :  2950.0 secs   av.it.:  11.1
      thresh= 0.100E-08 alpha_mix =  0.700 |ddv_scf|^2 =  0.441E-16

     End of self-consistent calculation

     Convergence has been achieved 


     Representation #  5 mode #   5

     Self-consistent Calculation

      iter #   1 total cpu time :  2961.1 secs   av.it.:   5.0
      thresh= 0.100E-01 alpha_mix =  0.700 |ddv_scf|^2 =  0.630E-07

      iter #   2 total cpu time :  2983.2 secs   av.it.:  13.4
      thresh= 0.251E-04 alpha_mix =  0.700 |ddv_scf|^2 =  0.445E-08

      iter #   3 total cpu time :  3005.4 secs   av.it.:  13.6
      thresh= 0.667E-05 alpha_mix =  0.700 |ddv_scf|^2 =  0.254E-09

      iter #   4 total cpu time :  3027.7 secs   av.it.:  13.7
      thresh= 0.159E-05 alpha_mix =  0.700 |ddv_scf|^2 =  0.303E-11

      iter #   5 total cpu time :  3050.2 secs   av.it.:  13.9
      thresh= 0.174E-06 alpha_mix =  0.700 |ddv_scf|^2 =  0.151E-12

      iter #   6 total cpu time :  3072.9 secs   av.it.:  14.0
      thresh= 0.388E-07 alpha_mix =  0.700 |ddv_scf|^2 =  0.251E-14

      iter #   7 total cpu time :  3095.1 secs   av.it.:  13.6
      thresh= 0.501E-08 alpha_mix =  0.700 |ddv_scf|^2 =  0.868E-16

     End of self-consistent calculation

     Convergence has been achieved 


     Representation #  6 mode #   6

     Self-consistent Calculation

      iter #   1 total cpu time :  3110.8 secs   av.it.:   8.4
      thresh= 0.100E-01 alpha_mix =  0.700 |ddv_scf|^2 =  0.783E-05

      iter #   2 total cpu time :  3132.4 secs   av.it.:  13.2
      thresh= 0.280E-03 alpha_mix =  0.700 |ddv_scf|^2 =  0.952E-06

      iter #   3 total cpu time :  3153.8 secs   av.it.:  13.0
      thresh= 0.976E-04 alpha_mix =  0.700 |ddv_scf|^2 =  0.736E-08

      iter #   4 total cpu time :  3176.2 secs   av.it.:  13.8
      thresh= 0.858E-05 alpha_mix =  0.700 |ddv_scf|^2 =  0.281E-09

      iter #   5 total cpu time :  3198.5 secs   av.it.:  13.6
      thresh= 0.168E-05 alpha_mix =  0.700 |ddv_scf|^2 =  0.573E-11

      iter #   6 total cpu time :  3220.7 secs   av.it.:  13.6
      thresh= 0.239E-06 alpha_mix =  0.700 |ddv_scf|^2 =  0.141E-12

      iter #   7 total cpu time :  3241.3 secs   av.it.:  12.4
      thresh= 0.375E-07 alpha_mix =  0.700 |ddv_scf|^2 =  0.516E-14

      iter #   8 total cpu time :  3263.2 secs   av.it.:  13.3
      thresh= 0.719E-08 alpha_mix =  0.700 |ddv_scf|^2 =  0.170E-16

     End of self-consistent calculation

     Convergence has been achieved 
 
     Number of q in the star =    3
     List of q in the star:
          1  -0.482033590   0.278302223   0.192010000
          2   0.482033590   0.278302223   0.192010000
          3   0.000000000  -0.556604446   0.192010000
     In addition there is the -q list: 
          1   0.482033590  -0.278302223  -0.192010000
          2  -0.482033590  -0.278302223  -0.192010000
          3   0.000000000   0.556604446  -0.192010000

     Diagonalizing the dynamical matrix

     q = (   -0.482033590   0.278302223   0.192010000 ) 

 **************************************************************************
     omega( 1) =       2.194491 [THz] =      73.200328 [cm-1]
     omega( 2) =       2.278503 [THz] =      76.002682 [cm-1]
     omega( 3) =       2.841821 [THz] =      94.792935 [cm-1]
     omega( 4) =       4.108142 [THz] =     137.032880 [cm-1]
     omega( 5) =       4.128090 [THz] =     137.698266 [cm-1]
     omega( 6) =       5.199350 [THz] =     173.431637 [cm-1]
 **************************************************************************

     Mode symmetry, C_s (m)     point group:

     omega(  1 -  1) =         73.2  [cm-1]   --> A''                
     omega(  2 -  2) =         76.0  [cm-1]   --> A'                 
     omega(  3 -  3) =         94.8  [cm-1]   --> A'                 
     omega(  4 -  4) =        137.0  [cm-1]   --> A''                
     omega(  5 -  5) =        137.7  [cm-1]   --> A'                 
     omega(  6 -  6) =        173.4  [cm-1]   --> A'                 

 **************************************************************************

     Calculation of q =    0.7230504  -0.4174533  -0.2880150
 
     Parallelization info
     --------------------
     sticks:   dense  smooth     PW     G-vecs:    dense   smooth      PW
     Min         217      71     25                 7255     1382     281
     Max         218      72     26                 7257     1408     284
     Sum        2613     859    301                87069    16727    3389
 


     bravais-lattice index     =            0
     lattice parameter (alat)  =      11.3542  a.u.
     unit-cell volume          =     350.7842 (a.u.)^3
     number of atoms/cell      =            2
     number of atomic types    =            2
     number of electrons       =        20.00
     number of Kohn-Sham states=           10
     kinetic-energy cutoff     =      50.0000  Ry
     charge density cutoff     =     600.0000  Ry
     Exchange-correlation      = PBESOL ( 1 410 8 0)
     EXX-fraction              =        0.00

     celldm(1)=  11.354229  celldm(2)=   0.000000  celldm(3)=   0.000000
     celldm(4)=   0.000000  celldm(5)=   0.000000  celldm(6)=   0.000000

     crystal axes: (cart. coord. in units of alat)
               a(1) = (   0.000000  -0.399246   0.578674 )  
               a(2) = (   0.345757   0.199623   0.578674 )  
               a(3) = (  -0.345757   0.199623   0.578674 )  

     reciprocal axes: (cart. coord. in units 2 pi/alat)
               b(1) = (  0.000000 -1.669813  0.576030 )  
               b(2) = (  1.446101  0.834907  0.576030 )  
               b(3) = ( -1.446101  0.834907  0.576030 )  


     PseudoPot. # 1 for Ge read from file:
     /work/02599/asmiller/pseudo/gbrv/pbe_GBRV/ge_pbe_v1.uspp.F.UPF
     MD5 check sum: 48aaa9fc4bb44e29d138cf8697c43b9a
     Pseudo is Ultrasoft + core correction, Zval = 14.0
     Generated by new atomic code, or converted to UPF format
     Using radial grid of  873 points,  6 beta functions with: 
                l(1) =   0
                l(2) =   0
                l(3) =   1
                l(4) =   1
                l(5) =   2
                l(6) =   2
     Q(r) pseudized with  8 coefficients,  rinner =    1.400   1.400   1.400
                                                       1.400   1.400

     PseudoPot. # 2 for Te read from file:
     /work/02599/asmiller/pseudo/gbrv/pbe_GBRV/te_pbe_v1.uspp.F.UPF
     MD5 check sum: 749656373d74338a59c146dbd702c29e
     Pseudo is Ultrasoft + core correction, Zval =  6.0
     Generated by new atomic code, or converted to UPF format
     Using radial grid of  891 points,  5 beta functions with: 
                l(1) =   0
                l(2) =   0
                l(3) =   1
                l(4) =   1
                l(5) =   2
     Q(r) pseudized with  6 coefficients,  rinner =    1.800   1.800   1.800
                                                       1.800   1.800

     atomic species   valence    mass     pseudopotential
        Ge            14.00    72.63000     Ge( 1.00)
        Te             6.00   127.60000     Te( 1.00)

      6 Sym. Ops. (no inversion) found



   Cartesian axes

     site n.     atom                  positions (alat units)
         1           Ge  tau(   1) = (   0.0000000   0.0000000   0.0105077  )
         2           Te  tau(   2) = (   0.0000000   0.0000000   0.8401424  )

     number of k points=   952

     Number of k-points >= 100: set verbosity='high' to print them.

     Dense  grid:    87069 G-vectors     FFT dimensions: (  64,  64,  64)

     Smooth grid:    16727 G-vectors     FFT dimensions: (  36,  36,  36)

     Largest allocated arrays     est. size (Mb)     dimensions
        Kohn-Sham Wavefunctions         0.03 Mb     (    185,   10)
        NL pseudopotentials             0.09 Mb     (    185,   31)
        Each V/rho on FFT grid          0.38 Mb     (  24576)
        Each G-vector array             0.06 Mb     (   7256)
        G-vector shells                 0.05 Mb     (   6308)
     Largest temporary arrays     est. size (Mb)     dimensions
        Auxiliary wavefunctions         0.11 Mb     (    185,   40)
        Each subspace H/S matrix        0.02 Mb     (  40,  40)
        Each <psi_i|beta_j> matrix      0.00 Mb     (     31,   10)

     Check: negative/imaginary core charge=   -0.000002    0.000000

     The potential is recalculated from file :
     ./_ph0/GeTe_d.save/charge-density.dat

     Starting wfc are   13 atomic wfcs

     total cpu time spent up to now is      102.3 secs

     per-process dynamical memory:    69.9 Mb

     Band Structure Calculation
     Davidson diagonalization with overlap

     ethr =  5.00E-11,  avg # of iterations = 16.1

     total cpu time spent up to now is      126.5 secs

     End of band structure calculation

     Number of k-points >= 100: set verbosity='high' to print the bands.

     Writing output data file GeTe_d.save

                                                                                

     bravais-lattice index     =            0
     lattice parameter (alat)  =      11.3542  a.u.
     unit-cell volume          =     350.7842 (a.u.)^3
     number of atoms/cell      =            2
     number of atomic types    =            2
     kinetic-energy cut-off    =      50.0000  Ry
     charge density cut-off    =     600.0000  Ry
     convergence threshold     =      1.0E-16
     beta                      =       0.7000
     number of iterations used =            4
     Exchange-correlation      = PBESOL ( 1 410 8 0)
     EXX-fraction              =        0.00


     celldm(1)=   11.35423  celldm(2)=    0.00000  celldm(3)=    0.00000
     celldm(4)=    0.00000  celldm(5)=    0.00000  celldm(6)=    0.00000

     crystal axes: (cart. coord. in units of alat)
               a(1) = (  0.0000 -0.3992  0.5787 )  
               a(2) = (  0.3458  0.1996  0.5787 )  
               a(3) = ( -0.3458  0.1996  0.5787 )  

     reciprocal axes: (cart. coord. in units 2 pi/alat)
               b(1) = (  0.0000 -1.6698  0.5760 )  
               b(2) = (  1.4461  0.8349  0.5760 )  
               b(3) = ( -1.4461  0.8349  0.5760 )  


     Atoms inside the unit cell: 

   Cartesian axes

     site n.  atom      mass           positions (alat units)
        1        Ge  72.6300   tau( 1) = (    0.00000    0.00000    0.01051  )
        2        Te 127.6000   tau( 2) = (    0.00000    0.00000    0.84014  )

     Computing dynamical matrix for 
                    q = (   0.7230504  -0.4174533  -0.2880150 )
 
      3 Sym.Ops. (with q -> -q+G )


     G cutoff = 1959.3264  (   7256 G-vectors)     FFT grid: ( 64, 64, 64)
     G cutoff =  653.1088  (   1386 G-vectors)  smooth grid: ( 36, 36, 36)
     number of k points=   952

     PseudoPot. # 1 for Ge read from file:
     /work/02599/asmiller/pseudo/gbrv/pbe_GBRV/ge_pbe_v1.uspp.F.UPF
     MD5 check sum: 48aaa9fc4bb44e29d138cf8697c43b9a
     Pseudo is Ultrasoft + core correction, Zval = 14.0
     Generated by new atomic code, or converted to UPF format
     Using radial grid of  873 points,  6 beta functions with: 
                l(1) =   0
                l(2) =   0
                l(3) =   1
                l(4) =   1
                l(5) =   2
                l(6) =   2
     Q(r) pseudized with  8 coefficients,  rinner =    1.400   1.400   1.400
                                                       1.400   1.400

     PseudoPot. # 2 for Te read from file:
     /work/02599/asmiller/pseudo/gbrv/pbe_GBRV/te_pbe_v1.uspp.F.UPF
     MD5 check sum: 749656373d74338a59c146dbd702c29e
     Pseudo is Ultrasoft + core correction, Zval =  6.0
     Generated by new atomic code, or converted to UPF format
     Using radial grid of  891 points,  5 beta functions with: 
                l(1) =   0
                l(2) =   0
                l(3) =   1
                l(4) =   1
                l(5) =   2
     Q(r) pseudized with  6 coefficients,  rinner =    1.800   1.800   1.800
                                                       1.800   1.800


     Atomic displacements:
     There are   6 irreducible representations

     Representation     1      1 modes -A' To be done

     Representation     2      1 modes -A' To be done

     Representation     3      1 modes -A' To be done

     Representation     4      1 modes -A' To be done

     Representation     5      1 modes -A'' To be done

     Representation     6      1 modes -A'' To be done



     Alpha used in Ewald sum =   2.8000
     PHONON       : 53m43.80s CPU    54m55.35s WALL



     Representation #  1 mode #   1

     Self-consistent Calculation

      iter #   1 total cpu time :  3303.6 secs   av.it.:   8.6
      thresh= 0.100E-01 alpha_mix =  0.700 |ddv_scf|^2 =  0.357E-04

      iter #   2 total cpu time :  3315.1 secs   av.it.:  13.3
      thresh= 0.597E-03 alpha_mix =  0.700 |ddv_scf|^2 =  0.133E-03

      iter #   3 total cpu time :  3325.2 secs   av.it.:  11.5
      thresh= 0.115E-02 alpha_mix =  0.700 |ddv_scf|^2 =  0.866E-06

      iter #   4 total cpu time :  3336.4 secs   av.it.:  13.0
      thresh= 0.931E-04 alpha_mix =  0.700 |ddv_scf|^2 =  0.427E-06

      iter #   5 total cpu time :  3346.6 secs   av.it.:  11.5
      thresh= 0.654E-04 alpha_mix =  0.700 |ddv_scf|^2 =  0.271E-07

      iter #   6 total cpu time :  3357.3 secs   av.it.:  12.4
      thresh= 0.165E-04 alpha_mix =  0.700 |ddv_scf|^2 =  0.826E-10

      iter #   7 total cpu time :  3369.0 secs   av.it.:  13.8
      thresh= 0.909E-06 alpha_mix =  0.700 |ddv_scf|^2 =  0.350E-11

      iter #   8 total cpu time :  3381.0 secs   av.it.:  14.1
      thresh= 0.187E-06 alpha_mix =  0.700 |ddv_scf|^2 =  0.597E-12

      iter #   9 total cpu time :  3392.5 secs   av.it.:  13.5
      thresh= 0.772E-07 alpha_mix =  0.700 |ddv_scf|^2 =  0.304E-13

      iter #  10 total cpu time :  3403.6 secs   av.it.:  13.0
      thresh= 0.174E-07 alpha_mix =  0.700 |ddv_scf|^2 =  0.310E-14

      iter #  11 total cpu time :  3414.8 secs   av.it.:  13.1
      thresh= 0.557E-08 alpha_mix =  0.700 |ddv_scf|^2 =  0.370E-14

      iter #  12 total cpu time :  3425.1 secs   av.it.:  11.8
      thresh= 0.608E-08 alpha_mix =  0.700 |ddv_scf|^2 =  0.760E-16

     End of self-consistent calculation

     Convergence has been achieved 


     Representation #  2 mode #   2

     Self-consistent Calculation

      iter #   1 total cpu time :  3431.4 secs   av.it.:   5.4
      thresh= 0.100E-01 alpha_mix =  0.700 |ddv_scf|^2 =  0.119E-04

      iter #   2 total cpu time :  3442.0 secs   av.it.:  12.2
      thresh= 0.344E-03 alpha_mix =  0.700 |ddv_scf|^2 =  0.689E-04

      iter #   3 total cpu time :  3451.6 secs   av.it.:  10.9
      thresh= 0.830E-03 alpha_mix =  0.700 |ddv_scf|^2 =  0.329E-07

      iter #   4 total cpu time :  3462.7 secs   av.it.:  12.9
      thresh= 0.181E-04 alpha_mix =  0.700 |ddv_scf|^2 =  0.202E-07

      iter #   5 total cpu time :  3473.2 secs   av.it.:  12.0
      thresh= 0.142E-04 alpha_mix =  0.700 |ddv_scf|^2 =  0.150E-09

      iter #   6 total cpu time :  3484.6 secs   av.it.:  13.3
      thresh= 0.123E-05 alpha_mix =  0.700 |ddv_scf|^2 =  0.222E-11

      iter #   7 total cpu time :  3496.2 secs   av.it.:  13.8
      thresh= 0.149E-06 alpha_mix =  0.700 |ddv_scf|^2 =  0.110E-12

      iter #   8 total cpu time :  3507.9 secs   av.it.:  13.8
      thresh= 0.332E-07 alpha_mix =  0.700 |ddv_scf|^2 =  0.348E-14

      iter #   9 total cpu time :  3519.8 secs   av.it.:  14.0
      thresh= 0.590E-08 alpha_mix =  0.700 |ddv_scf|^2 =  0.280E-15

      iter #  10 total cpu time :  3531.5 secs   av.it.:  13.7
      thresh= 0.167E-08 alpha_mix =  0.700 |ddv_scf|^2 =  0.644E-16

     End of self-consistent calculation

     Convergence has been achieved 


     Representation #  3 mode #   3

     Self-consistent Calculation

      iter #   1 total cpu time :  3537.3 secs   av.it.:   5.0
      thresh= 0.100E-01 alpha_mix =  0.700 |ddv_scf|^2 =  0.274E-06

      iter #   2 total cpu time :  3548.3 secs   av.it.:  12.8
      thresh= 0.523E-04 alpha_mix =  0.700 |ddv_scf|^2 =  0.121E-05

      iter #   3 total cpu time :  3558.1 secs   av.it.:  11.0
      thresh= 0.110E-03 alpha_mix =  0.700 |ddv_scf|^2 =  0.948E-08

      iter #   4 total cpu time :  3569.1 secs   av.it.:  12.8
      thresh= 0.974E-05 alpha_mix =  0.700 |ddv_scf|^2 =  0.661E-09

      iter #   5 total cpu time :  3580.6 secs   av.it.:  13.0
      thresh= 0.257E-05 alpha_mix =  0.700 |ddv_scf|^2 =  0.944E-09

      iter #   6 total cpu time :  3590.9 secs   av.it.:  11.8
      thresh= 0.307E-05 alpha_mix =  0.700 |ddv_scf|^2 =  0.785E-12

      iter #   7 total cpu time :  3603.0 secs   av.it.:  14.3
      thresh= 0.886E-07 alpha_mix =  0.700 |ddv_scf|^2 =  0.833E-13

      iter #   8 total cpu time :  3614.7 secs   av.it.:  13.8
      thresh= 0.289E-07 alpha_mix =  0.700 |ddv_scf|^2 =  0.451E-14

      iter #   9 total cpu time :  3626.7 secs   av.it.:  14.2
      thresh= 0.671E-08 alpha_mix =  0.700 |ddv_scf|^2 =  0.145E-14

      iter #  10 total cpu time :  3637.5 secs   av.it.:  12.4
      thresh= 0.381E-08 alpha_mix =  0.700 |ddv_scf|^2 =  0.698E-15

      iter #  11 total cpu time :  3648.2 secs   av.it.:  12.3
      thresh= 0.264E-08 alpha_mix =  0.700 |ddv_scf|^2 =  0.238E-16

     End of self-consistent calculation

     Convergence has been achieved 


     Representation #  4 mode #   4

     Self-consistent Calculation

      iter #   1 total cpu time :  3656.9 secs   av.it.:   8.9
      thresh= 0.100E-01 alpha_mix =  0.700 |ddv_scf|^2 =  0.792E-04

      iter #   2 total cpu time :  3668.2 secs   av.it.:  13.2
      thresh= 0.890E-03 alpha_mix =  0.700 |ddv_scf|^2 =  0.344E-03

      iter #   3 total cpu time :  3678.6 secs   av.it.:  11.5
      thresh= 0.185E-02 alpha_mix =  0.700 |ddv_scf|^2 =  0.797E-06

      iter #   4 total cpu time :  3689.7 secs   av.it.:  13.0
      thresh= 0.893E-04 alpha_mix =  0.700 |ddv_scf|^2 =  0.909E-06

      iter #   5 total cpu time :  3699.8 secs   av.it.:  11.5
      thresh= 0.954E-04 alpha_mix =  0.700 |ddv_scf|^2 =  0.301E-07

      iter #   6 total cpu time :  3710.5 secs   av.it.:  12.3
      thresh= 0.174E-04 alpha_mix =  0.700 |ddv_scf|^2 =  0.405E-10

      iter #   7 total cpu time :  3722.3 secs   av.it.:  13.9
      thresh= 0.637E-06 alpha_mix =  0.700 |ddv_scf|^2 =  0.392E-11

      iter #   8 total cpu time :  3733.9 secs   av.it.:  13.6
      thresh= 0.198E-06 alpha_mix =  0.700 |ddv_scf|^2 =  0.303E-12

      iter #   9 total cpu time :  3745.4 secs   av.it.:  13.5
      thresh= 0.550E-07 alpha_mix =  0.700 |ddv_scf|^2 =  0.128E-13

      iter #  10 total cpu time :  3756.8 secs   av.it.:  13.4
      thresh= 0.113E-07 alpha_mix =  0.700 |ddv_scf|^2 =  0.126E-14

      iter #  11 total cpu time :  3767.6 secs   av.it.:  12.4
      thresh= 0.355E-08 alpha_mix =  0.700 |ddv_scf|^2 =  0.123E-15

      iter #  12 total cpu time :  3778.9 secs   av.it.:  13.0
      thresh= 0.111E-08 alpha_mix =  0.700 |ddv_scf|^2 =  0.363E-16

     End of self-consistent calculation

     Convergence has been achieved 


     Representation #  5 mode #   5

     Self-consistent Calculation

      iter #   1 total cpu time :  3784.8 secs   av.it.:   5.0
      thresh= 0.100E-01 alpha_mix =  0.700 |ddv_scf|^2 =  0.678E-07

      iter #   2 total cpu time :  3796.1 secs   av.it.:  13.3
      thresh= 0.260E-04 alpha_mix =  0.700 |ddv_scf|^2 =  0.448E-08

      iter #   3 total cpu time :  3807.6 secs   av.it.:  13.5
      thresh= 0.669E-05 alpha_mix =  0.700 |ddv_scf|^2 =  0.229E-09

      iter #   4 total cpu time :  3819.1 secs   av.it.:  13.6
      thresh= 0.151E-05 alpha_mix =  0.700 |ddv_scf|^2 =  0.230E-11

      iter #   5 total cpu time :  3830.9 secs   av.it.:  13.9
      thresh= 0.152E-06 alpha_mix =  0.700 |ddv_scf|^2 =  0.159E-12

      iter #   6 total cpu time :  3842.7 secs   av.it.:  14.0
      thresh= 0.399E-07 alpha_mix =  0.700 |ddv_scf|^2 =  0.243E-14

      iter #   7 total cpu time :  3854.3 secs   av.it.:  13.5
      thresh= 0.493E-08 alpha_mix =  0.700 |ddv_scf|^2 =  0.116E-15

      iter #   8 total cpu time :  3866.1 secs   av.it.:  14.0
      thresh= 0.108E-08 alpha_mix =  0.700 |ddv_scf|^2 =  0.580E-18

     End of self-consistent calculation

     Convergence has been achieved 


     Representation #  6 mode #   6

     Self-consistent Calculation

      iter #   1 total cpu time :  3874.4 secs   av.it.:   8.4
      thresh= 0.100E-01 alpha_mix =  0.700 |ddv_scf|^2 =  0.802E-05

      iter #   2 total cpu time :  3885.6 secs   av.it.:  13.1
      thresh= 0.283E-03 alpha_mix =  0.700 |ddv_scf|^2 =  0.100E-05

      iter #   3 total cpu time :  3896.7 secs   av.it.:  12.9
      thresh= 0.100E-03 alpha_mix =  0.700 |ddv_scf|^2 =  0.694E-08

      iter #   4 total cpu time :  3908.3 secs   av.it.:  13.6
      thresh= 0.833E-05 alpha_mix =  0.700 |ddv_scf|^2 =  0.124E-09

      iter #   5 total cpu time :  3919.9 secs   av.it.:  13.7
      thresh= 0.111E-05 alpha_mix =  0.700 |ddv_scf|^2 =  0.633E-11

      iter #   6 total cpu time :  3931.4 secs   av.it.:  13.5
      thresh= 0.252E-06 alpha_mix =  0.700 |ddv_scf|^2 =  0.127E-12

      iter #   7 total cpu time :  3942.0 secs   av.it.:  12.1
      thresh= 0.357E-07 alpha_mix =  0.700 |ddv_scf|^2 =  0.689E-14

      iter #   8 total cpu time :  3953.2 secs   av.it.:  13.0
      thresh= 0.830E-08 alpha_mix =  0.700 |ddv_scf|^2 =  0.117E-16

     End of self-consistent calculation

     Convergence has been achieved 
 
     Number of q in the star =    3
     List of q in the star:
          1   0.723050384  -0.417453335  -0.288015000
          2  -0.723050384  -0.417453335  -0.288015000
          3   0.000000000   0.834906669  -0.288015000

     Diagonalizing the dynamical matrix

     q = (    0.723050384  -0.417453335  -0.288015000 ) 

 **************************************************************************
     omega( 1) =       2.640771 [THz] =      88.086638 [cm-1]
     omega( 2) =       3.024986 [THz] =     100.902685 [cm-1]
     omega( 3) =       3.058072 [THz] =     102.006290 [cm-1]
     omega( 4) =       4.093593 [THz] =     136.547576 [cm-1]
     omega( 5) =       4.106762 [THz] =     136.986851 [cm-1]
     omega( 6) =       5.199741 [THz] =     173.444699 [cm-1]
 **************************************************************************

     Mode symmetry, C_s (m)     point group:

     omega(  1 -  1) =         88.1  [cm-1]   --> A''                
     omega(  2 -  2) =        100.9  [cm-1]   --> A'                 
     omega(  3 -  3) =        102.0  [cm-1]   --> A'                 
     omega(  4 -  4) =        136.5  [cm-1]   --> A'                 
     omega(  5 -  5) =        137.0  [cm-1]   --> A''                
     omega(  6 -  6) =        173.4  [cm-1]   --> A'                 

 **************************************************************************

     Calculation of q =    0.0000000   0.2783022   0.1920100
 
     Parallelization info
     --------------------
     sticks:   dense  smooth     PW     G-vecs:    dense   smooth      PW
     Min         217      71     22                 7255     1385     245
     Max         218      72     23                 7257     1406     247
     Sum        2613     859    273                87069    16727    2951
 


     bravais-lattice index     =            0
     lattice parameter (alat)  =      11.3542  a.u.
     unit-cell volume          =     350.7842 (a.u.)^3
     number of atoms/cell      =            2
     number of atomic types    =            2
     number of electrons       =        20.00
     number of Kohn-Sham states=           10
     kinetic-energy cutoff     =      50.0000  Ry
     charge density cutoff     =     600.0000  Ry
     Exchange-correlation      = PBESOL ( 1 410 8 0)
     EXX-fraction              =        0.00

     celldm(1)=  11.354229  celldm(2)=   0.000000  celldm(3)=   0.000000
     celldm(4)=   0.000000  celldm(5)=   0.000000  celldm(6)=   0.000000

     crystal axes: (cart. coord. in units of alat)
               a(1) = (   0.000000  -0.399246   0.578674 )  
               a(2) = (   0.345757   0.199623   0.578674 )  
               a(3) = (  -0.345757   0.199623   0.578674 )  

     reciprocal axes: (cart. coord. in units 2 pi/alat)
               b(1) = (  0.000000 -1.669813  0.576030 )  
               b(2) = (  1.446101  0.834907  0.576030 )  
               b(3) = ( -1.446101  0.834907  0.576030 )  


     PseudoPot. # 1 for Ge read from file:
     /work/02599/asmiller/pseudo/gbrv/pbe_GBRV/ge_pbe_v1.uspp.F.UPF
     MD5 check sum: 48aaa9fc4bb44e29d138cf8697c43b9a
     Pseudo is Ultrasoft + core correction, Zval = 14.0
     Generated by new atomic code, or converted to UPF format
     Using radial grid of  873 points,  6 beta functions with: 
                l(1) =   0
                l(2) =   0
                l(3) =   1
                l(4) =   1
                l(5) =   2
                l(6) =   2
     Q(r) pseudized with  8 coefficients,  rinner =    1.400   1.400   1.400
                                                       1.400   1.400

     PseudoPot. # 2 for Te read from file:
     /work/02599/asmiller/pseudo/gbrv/pbe_GBRV/te_pbe_v1.uspp.F.UPF
     MD5 check sum: 749656373d74338a59c146dbd702c29e
     Pseudo is Ultrasoft + core correction, Zval =  6.0
     Generated by new atomic code, or converted to UPF format
     Using radial grid of  891 points,  5 beta functions with: 
                l(1) =   0
                l(2) =   0
                l(3) =   1
                l(4) =   1
                l(5) =   2
     Q(r) pseudized with  6 coefficients,  rinner =    1.800   1.800   1.800
                                                       1.800   1.800

     atomic species   valence    mass     pseudopotential
        Ge            14.00    72.63000     Ge( 1.00)
        Te             6.00   127.60000     Te( 1.00)

      6 Sym. Ops. (no inversion) found



   Cartesian axes

     site n.     atom                  positions (alat units)
         1           Ge  tau(   1) = (   0.0000000   0.0000000   0.0105077  )
         2           Te  tau(   2) = (   0.0000000   0.0000000   0.8401424  )

     number of k points=  1872

     Number of k-points >= 100: set verbosity='high' to print them.

     Dense  grid:    87069 G-vectors     FFT dimensions: (  64,  64,  64)

     Smooth grid:    16727 G-vectors     FFT dimensions: (  36,  36,  36)

     Largest allocated arrays     est. size (Mb)     dimensions
        Kohn-Sham Wavefunctions         0.03 Mb     (    188,   10)
        NL pseudopotentials             0.09 Mb     (    188,   31)
        Each V/rho on FFT grid          0.38 Mb     (  24576)
        Each G-vector array             0.06 Mb     (   7256)
        G-vector shells                 0.05 Mb     (   6263)
     Largest temporary arrays     est. size (Mb)     dimensions
        Auxiliary wavefunctions         0.11 Mb     (    188,   40)
        Each subspace H/S matrix        0.02 Mb     (  40,  40)
        Each <psi_i|beta_j> matrix      0.00 Mb     (     31,   10)

     Check: negative/imaginary core charge=   -0.000002    0.000000

     The potential is recalculated from file :
     ./_ph0/GeTe_d.save/charge-density.dat

     Starting wfc are   13 atomic wfcs

     total cpu time spent up to now is      128.9 secs

     per-process dynamical memory:    69.9 Mb

     Band Structure Calculation
     Davidson diagonalization with overlap

[...]
     kinetic-energy cutoff     =      50.0000  Ry
     charge density cutoff     =     600.0000  Ry
     Exchange-correlation      = PBESOL ( 1 410 8 0)
     EXX-fraction              =        0.00

     celldm(1)=  11.354229  celldm(2)=   0.000000  celldm(3)=   0.000000
     celldm(4)=   0.000000  celldm(5)=   0.000000  celldm(6)=   0.000000

     crystal axes: (cart. coord. in units of alat)
               a(1) = (   0.000000  -0.399246   0.578674 )  
               a(2) = (   0.345757   0.199623   0.578674 )  
               a(3) = (  -0.345757   0.199623   0.578674 )  

     reciprocal axes: (cart. coord. in units 2 pi/alat)
               b(1) = (  0.000000 -1.669813  0.576030 )  
               b(2) = (  1.446101  0.834907  0.576030 )  
               b(3) = ( -1.446101  0.834907  0.576030 )  


     PseudoPot. # 1 for Ge read from file:
     /work/02599/asmiller/pseudo/gbrv/pbe_GBRV/ge_pbe_v1.uspp.F.UPF
     MD5 check sum: 48aaa9fc4bb44e29d138cf8697c43b9a
     Pseudo is Ultrasoft + core correction, Zval = 14.0
     Generated by new atomic code, or converted to UPF format
     Using radial grid of  873 points,  6 beta functions with: 
                l(1) =   0
                l(2) =   0
                l(3) =   1
                l(4) =   1
                l(5) =   2
                l(6) =   2
     Q(r) pseudized with  8 coefficients,  rinner =    1.400   1.400   1.400
                                                       1.400   1.400

     PseudoPot. # 2 for Te read from file:
     /work/02599/asmiller/pseudo/gbrv/pbe_GBRV/te_pbe_v1.uspp.F.UPF
     MD5 check sum: 749656373d74338a59c146dbd702c29e
     Pseudo is Ultrasoft + core correction, Zval =  6.0
     Generated by new atomic code, or converted to UPF format
     Using radial grid of  891 points,  5 beta functions with: 
                l(1) =   0
                l(2) =   0
                l(3) =   1
                l(4) =   1
                l(5) =   2
     Q(r) pseudized with  6 coefficients,  rinner =    1.800   1.800   1.800
                                                       1.800   1.800

     atomic species   valence    mass     pseudopotential
        Ge            14.00    72.63000     Ge( 1.00)
        Te             6.00   127.60000     Te( 1.00)

      6 Sym. Ops. (no inversion) found



   Cartesian axes

     site n.     atom                  positions (alat units)
         1           Ge  tau(   1) = (   0.0000000   0.0000000   0.0105077  )
         2           Te  tau(   2) = (   0.0000000   0.0000000   0.8401424  )

     number of k points=   378

     Number of k-points >= 100: set verbosity='high' to print them.

     Dense  grid:    87069 G-vectors     FFT dimensions: (  64,  64,  64)

     Smooth grid:    16727 G-vectors     FFT dimensions: (  36,  36,  36)

     Largest allocated arrays     est. size (Mb)     dimensions
        Kohn-Sham Wavefunctions         0.03 Mb     (    191,   10)
        NL pseudopotentials             0.09 Mb     (    191,   31)
        Each V/rho on FFT grid          0.38 Mb     (  24576)
        Each G-vector array             0.06 Mb     (   7256)
        G-vector shells                 0.05 Mb     (   6340)
     Largest temporary arrays     est. size (Mb)     dimensions
        Auxiliary wavefunctions         0.12 Mb     (    191,   40)
        Each subspace H/S matrix        0.02 Mb     (  40,  40)
        Each <psi_i|beta_j> matrix      0.00 Mb     (     31,   10)

     Check: negative/imaginary core charge=   -0.000002    0.000000

     The potential is recalculated from file :
     ./_ph0/GeTe_d.save/charge-density.dat

     Starting wfc are   13 atomic wfcs

     total cpu time spent up to now is     2020.2 secs

     per-process dynamical memory:    81.8 Mb

     Band Structure Calculation
     Davidson diagonalization with overlap

     ethr =  5.00E-11,  avg # of iterations = 16.1

     total cpu time spent up to now is     2029.5 secs

     End of band structure calculation

     Number of k-points >= 100: set verbosity='high' to print the bands.

     Writing output data file GeTe_d.save

                                                                                

     bravais-lattice index     =            0
     lattice parameter (alat)  =      11.3542  a.u.
     unit-cell volume          =     350.7842 (a.u.)^3
     number of atoms/cell      =            2
     number of atomic types    =            2
     kinetic-energy cut-off    =      50.0000  Ry
     charge density cut-off    =     600.0000  Ry
     convergence threshold     =      1.0E-16
     beta                      =       0.7000
     number of iterations used =            4
     Exchange-correlation      = PBESOL ( 1 410 8 0)
     EXX-fraction              =        0.00


     celldm(1)=   11.35423  celldm(2)=    0.00000  celldm(3)=    0.00000
     celldm(4)=    0.00000  celldm(5)=    0.00000  celldm(6)=    0.00000

     crystal axes: (cart. coord. in units of alat)
               a(1) = (  0.0000 -0.3992  0.5787 )  
               a(2) = (  0.3458  0.1996  0.5787 )  
               a(3) = ( -0.3458  0.1996  0.5787 )  

     reciprocal axes: (cart. coord. in units 2 pi/alat)
               b(1) = (  0.0000 -1.6698  0.5760 )  
               b(2) = (  1.4461  0.8349  0.5760 )  
               b(3) = ( -1.4461  0.8349  0.5760 )  


     Atoms inside the unit cell: 

   Cartesian axes

     site n.  atom      mass           positions (alat units)
        1        Ge  72.6300   tau( 1) = (    0.00000    0.00000    0.01051  )
        2        Te 127.6000   tau( 2) = (    0.00000    0.00000    0.84014  )

     Computing dynamical matrix for 
                    q = (   0.0000000   0.0000000  -0.8640450 )
 
      7 Sym.Ops. (with q -> -q+G )


     G cutoff = 1959.3264  (   7256 G-vectors)     FFT grid: ( 64, 64, 64)
     G cutoff =  653.1088  (   1386 G-vectors)  smooth grid: ( 36, 36, 36)
     number of k points=   378

     PseudoPot. # 1 for Ge read from file:
     /work/02599/asmiller/pseudo/gbrv/pbe_GBRV/ge_pbe_v1.uspp.F.UPF
     MD5 check sum: 48aaa9fc4bb44e29d138cf8697c43b9a
     Pseudo is Ultrasoft + core correction, Zval = 14.0
     Generated by new atomic code, or converted to UPF format
     Using radial grid of  873 points,  6 beta functions with: 
                l(1) =   0
                l(2) =   0
                l(3) =   1
                l(4) =   1
                l(5) =   2
                l(6) =   2
     Q(r) pseudized with  8 coefficients,  rinner =    1.400   1.400   1.400
                                                       1.400   1.400

     PseudoPot. # 2 for Te read from file:
     /work/02599/asmiller/pseudo/gbrv/pbe_GBRV/te_pbe_v1.uspp.F.UPF
     MD5 check sum: 749656373d74338a59c146dbd702c29e
     Pseudo is Ultrasoft + core correction, Zval =  6.0
     Generated by new atomic code, or converted to UPF format
     Using radial grid of  891 points,  5 beta functions with: 
                l(1) =   0
                l(2) =   0
                l(3) =   1
                l(4) =   1
                l(5) =   2
     Q(r) pseudized with  6 coefficients,  rinner =    1.800   1.800   1.800
                                                       1.800   1.800


     Atomic displacements:
     There are   4 irreducible representations

     Representation     1      1 modes -A_1  L_1 To be done

     Representation     2      1 modes -A_1  L_1 To be done

     Representation     3      2 modes -E    L_3 To be done

     Representation     4      2 modes -E    L_3 To be done



     Alpha used in Ewald sum =   2.8000
     PHONON       :    17h23m CPU       17h42m WALL



     Representation #  1 mode #   1

     Self-consistent Calculation

      iter #   1 total cpu time : 63757.9 secs   av.it.:   8.9
      thresh= 0.100E-01 alpha_mix =  0.700 |ddv_scf|^2 =  0.120E-03

      iter #   2 total cpu time : 63762.5 secs   av.it.:  12.9
      thresh= 0.109E-02 alpha_mix =  0.700 |ddv_scf|^2 =  0.620E-03

      iter #   3 total cpu time : 63766.6 secs   av.it.:  11.3
      thresh= 0.249E-02 alpha_mix =  0.700 |ddv_scf|^2 =  0.604E-05

      iter #   4 total cpu time : 63770.7 secs   av.it.:  11.4
      thresh= 0.246E-03 alpha_mix =  0.700 |ddv_scf|^2 =  0.671E-06

      iter #   5 total cpu time : 63774.9 secs   av.it.:  11.6
      thresh= 0.819E-04 alpha_mix =  0.700 |ddv_scf|^2 =  0.380E-07

      iter #   6 total cpu time : 63779.2 secs   av.it.:  12.3
      thresh= 0.195E-04 alpha_mix =  0.700 |ddv_scf|^2 =  0.978E-10

      iter #   7 total cpu time : 63784.0 secs   av.it.:  13.7
      thresh= 0.989E-06 alpha_mix =  0.700 |ddv_scf|^2 =  0.233E-10

      iter #   8 total cpu time : 63788.6 secs   av.it.:  13.0
      thresh= 0.483E-06 alpha_mix =  0.700 |ddv_scf|^2 =  0.987E-12

      iter #   9 total cpu time : 63793.2 secs   av.it.:  13.2
      thresh= 0.993E-07 alpha_mix =  0.700 |ddv_scf|^2 =  0.222E-13

      iter #  10 total cpu time : 63797.7 secs   av.it.:  12.6
      thresh= 0.149E-07 alpha_mix =  0.700 |ddv_scf|^2 =  0.186E-14

      iter #  11 total cpu time : 63802.1 secs   av.it.:  12.4
      thresh= 0.431E-08 alpha_mix =  0.700 |ddv_scf|^2 =  0.873E-15

      iter #  12 total cpu time : 63806.3 secs   av.it.:  11.7
      thresh= 0.295E-08 alpha_mix =  0.700 |ddv_scf|^2 =  0.593E-16

     End of self-consistent calculation

     Convergence has been achieved 


     Representation #  2 mode #   2

     Self-consistent Calculation

      iter #   1 total cpu time : 63809.0 secs   av.it.:   5.4
      thresh= 0.100E-01 alpha_mix =  0.700 |ddv_scf|^2 =  0.138E-04

      iter #   2 total cpu time : 63813.3 secs   av.it.:  12.1
      thresh= 0.372E-03 alpha_mix =  0.700 |ddv_scf|^2 =  0.890E-04

      iter #   3 total cpu time : 63817.3 secs   av.it.:  10.9
      thresh= 0.944E-03 alpha_mix =  0.700 |ddv_scf|^2 =  0.241E-06

      iter #   4 total cpu time : 63821.4 secs   av.it.:  11.4
      thresh= 0.491E-04 alpha_mix =  0.700 |ddv_scf|^2 =  0.789E-08

      iter #   5 total cpu time : 63825.9 secs   av.it.:  12.7
      thresh= 0.888E-05 alpha_mix =  0.700 |ddv_scf|^2 =  0.174E-09

      iter #   6 total cpu time : 63830.4 secs   av.it.:  12.9
      thresh= 0.132E-05 alpha_mix =  0.700 |ddv_scf|^2 =  0.387E-11

      iter #   7 total cpu time : 63835.0 secs   av.it.:  12.8
      thresh= 0.197E-06 alpha_mix =  0.700 |ddv_scf|^2 =  0.163E-12

      iter #   8 total cpu time : 63839.6 secs   av.it.:  13.1
      thresh= 0.404E-07 alpha_mix =  0.700 |ddv_scf|^2 =  0.593E-14

      iter #   9 total cpu time : 63844.3 secs   av.it.:  13.7
      thresh= 0.770E-08 alpha_mix =  0.700 |ddv_scf|^2 =  0.179E-15

      iter #  10 total cpu time : 63849.1 secs   av.it.:  13.8
      thresh= 0.134E-08 alpha_mix =  0.700 |ddv_scf|^2 =  0.562E-16

     End of self-consistent calculation

     Convergence has been achieved 


     Representation #  3 modes #   3  4

     Self-consistent Calculation

      iter #   1 total cpu time : 63853.9 secs   av.it.:   5.0
      thresh= 0.100E-01 alpha_mix =  0.700 |ddv_scf|^2 =  0.158E-07

      iter #   2 total cpu time : 63863.4 secs   av.it.:  13.9
      thresh= 0.126E-04 alpha_mix =  0.700 |ddv_scf|^2 =  0.966E-09

      iter #   3 total cpu time : 63872.9 secs   av.it.:  13.9
      thresh= 0.311E-05 alpha_mix =  0.700 |ddv_scf|^2 =  0.513E-10

      iter #   4 total cpu time : 63882.2 secs   av.it.:  13.4
      thresh= 0.717E-06 alpha_mix =  0.700 |ddv_scf|^2 =  0.312E-12

      iter #   5 total cpu time : 63892.2 secs   av.it.:  14.8
      thresh= 0.559E-07 alpha_mix =  0.700 |ddv_scf|^2 =  0.319E-14

      iter #   6 total cpu time : 63902.1 secs   av.it.:  14.8
      thresh= 0.565E-08 alpha_mix =  0.700 |ddv_scf|^2 =  0.125E-15

      iter #   7 total cpu time : 63912.3 secs   av.it.:  15.1
      thresh= 0.112E-08 alpha_mix =  0.700 |ddv_scf|^2 =  0.107E-16

     End of self-consistent calculation

     Convergence has been achieved 


     Representation #  4 modes #   5  6

     Self-consistent Calculation

      iter #   1 total cpu time : 63919.4 secs   av.it.:   8.4
      thresh= 0.100E-01 alpha_mix =  0.700 |ddv_scf|^2 =  0.196E-05

      iter #   2 total cpu time : 63928.9 secs   av.it.:  14.0
      thresh= 0.140E-03 alpha_mix =  0.700 |ddv_scf|^2 =  0.230E-06

      iter #   3 total cpu time : 63938.5 secs   av.it.:  14.0
      thresh= 0.480E-04 alpha_mix =  0.700 |ddv_scf|^2 =  0.165E-08

      iter #   4 total cpu time : 63948.4 secs   av.it.:  14.6
      thresh= 0.406E-05 alpha_mix =  0.700 |ddv_scf|^2 =  0.136E-10

      iter #   5 total cpu time : 63958.2 secs   av.it.:  14.4
      thresh= 0.368E-06 alpha_mix =  0.700 |ddv_scf|^2 =  0.184E-12

      iter #   6 total cpu time : 63967.7 secs   av.it.:  14.0
      thresh= 0.429E-07 alpha_mix =  0.700 |ddv_scf|^2 =  0.123E-13

      iter #   7 total cpu time : 63977.6 secs   av.it.:  14.0
      thresh= 0.111E-07 alpha_mix =  0.700 |ddv_scf|^2 =  0.811E-15

      iter #   8 total cpu time : 63987.2 secs   av.it.:  14.1
      thresh= 0.285E-08 alpha_mix =  0.700 |ddv_scf|^2 =  0.220E-17

     End of self-consistent calculation

     Convergence has been achieved 
 
     Number of q in the star =    1
     List of q in the star:
          1   0.000000000   0.000000000  -0.864045001

     Diagonalizing the dynamical matrix

     q = (    0.000000000   0.000000000  -0.864045001 ) 

 **************************************************************************
     omega( 1) =       2.412151 [THz] =      80.460682 [cm-1]
     omega( 2) =       2.412151 [THz] =      80.460682 [cm-1]
     omega( 3) =       3.063615 [THz] =     102.191188 [cm-1]
     omega( 4) =       4.292873 [THz] =     143.194825 [cm-1]
     omega( 5) =       4.292873 [THz] =     143.194825 [cm-1]
     omega( 6) =       5.320761 [THz] =     177.481488 [cm-1]
 **************************************************************************

     Mode symmetry, C_3v (3m)   point group:

     omega(  1 -  2) =         80.5  [cm-1]   --> E    L_3           
     omega(  3 -  3) =        102.2  [cm-1]   --> A_1  L_1           
     omega(  4 -  5) =        143.2  [cm-1]   --> E    L_3           
     omega(  6 -  6) =        177.5  [cm-1]   --> A_1  L_1           

 **************************************************************************
 
     init_run     :     28.32s CPU     30.49s WALL (      31 calls)
     electrons    :   1698.53s CPU   1898.65s WALL (      31 calls)

     Called by init_run:
     wfcinit      :      0.00s CPU      0.00s WALL (      31 calls)
     potinit      :      2.11s CPU      2.28s WALL (      31 calls)

     Called by electrons:
     c_bands      :   1698.23s CPU   1898.35s WALL (      31 calls)
     v_of_rho     :      0.80s CPU      0.86s WALL (      32 calls)
     newd         :      2.17s CPU      2.16s WALL (      32 calls)

     Called by c_bands:
     init_us_2    :     94.93s CPU     96.38s WALL ( 1064810 calls)
     cegterg      :   1430.13s CPU   1442.12s WALL (   25461 calls)

     Called by *egterg:
     h_psi        :   1264.67s CPU   1278.24s WALL (  433385 calls)
     s_psi        :   2772.54s CPU   2812.86s WALL (34253778 calls)
     g_psi        :     10.22s CPU     10.22s WALL (  384114 calls)
     cdiaghg      :    144.70s CPU    145.43s WALL (  407924 calls)

     Called by h_psi:
     add_vuspsi   :   1439.51s CPU   1430.53s WALL (16879430 calls)

     General routines
     calbec       :   4762.29s CPU   4656.06s WALL (35726565 calls)
     fft          :     65.56s CPU     69.75s WALL (   41984 calls)
     ffts         :     17.88s CPU     20.33s WALL (   78450 calls)
     fftw         :  39248.68s CPU  39495.79s WALL (******** calls)
     interpolate  :      0.12s CPU      0.13s WALL (      63 calls)
     davcio       :     24.01s CPU    233.01s WALL ( 4753823 calls)
 
     Parallel routines
     fft_scatter  :  20882.87s CPU  20824.43s WALL (******** calls)
 
     PHONON       :    17h27m CPU       17h46m WALL

     INITIALIZATION: 
     phq_setup    :      1.98s CPU      3.68s WALL (      32 calls)
     phq_init     :    263.59s CPU    269.04s WALL (      32 calls)
 
     phq_init     :    263.59s CPU    269.04s WALL (      32 calls)
     set_drhoc    :     23.87s CPU     23.87s WALL (      96 calls)
     init_vloc    :      2.96s CPU      2.98s WALL (      32 calls)
     init_us_1    :      7.60s CPU      7.65s WALL (      32 calls)
     newd         :      2.17s CPU      2.16s WALL (      32 calls)
     dvanqq       :     17.80s CPU     17.82s WALL (      32 calls)
     drho         :    182.07s CPU    185.17s WALL (      32 calls)
 
     DYNAMICAL MATRIX:
     dynmat0      :     39.93s CPU     41.32s WALL (      32 calls)
     phqscf       :  60609.04s CPU  61517.91s WALL (      32 calls)
     dynmatrix    :      0.13s CPU      0.26s WALL (      32 calls)
 
     phqscf       :  60609.04s CPU  61517.91s WALL (      32 calls)
     solve_linter :  60543.74s CPU  61442.20s WALL (     184 calls)
     drhodv       :     61.56s CPU     63.73s WALL (     184 calls)
 
     dynmat0      :     39.93s CPU     41.32s WALL (      32 calls)
     dynmat_us    :     23.46s CPU     23.76s WALL (      32 calls)
     d2ionq       :      0.06s CPU      0.07s WALL (      32 calls)
     dynmatcc     :     15.86s CPU     15.89s WALL (      32 calls)
 
     dynmat_us    :     23.46s CPU     23.76s WALL (      32 calls)
     addusdynmat  :      0.00s CPU      0.00s WALL (      32 calls)
 
     phqscf       :  60609.04s CPU  61517.91s WALL (      32 calls)
     solve_linter :  60543.74s CPU  61442.20s WALL (     184 calls)
 
     solve_linter :  60543.74s CPU  61442.20s WALL (     184 calls)
     dvqpsi_us    :    267.30s CPU    271.77s WALL (   72186 calls)
     ortho        :    368.62s CPU    368.71s WALL (  928114 calls)
     cgsolve      :  53861.98s CPU  54432.75s WALL (  928114 calls)
     incdrhoscf   :   2980.07s CPU   3007.66s WALL (  928114 calls)
     addusddens   :    143.71s CPU    144.59s WALL (    2456 calls)
     vpsifft      :   2335.63s CPU   2359.72s WALL (  854605 calls)
     dv_of_drho   :     66.72s CPU     69.62s WALL (    2358 calls)
     mix_pot      :     16.14s CPU     53.60s WALL (    2280 calls)
     psymdvscf    :     44.15s CPU     48.12s WALL (    1273 calls)
     newdq        :    131.53s CPU    131.78s WALL (    2280 calls)
     adddvscf     :    132.37s CPU    133.18s WALL (  855928 calls)
     drhodvus     :      0.22s CPU      0.47s WALL (     184 calls)
 
     dvqpsi_us    :    267.30s CPU    271.77s WALL (   72186 calls)
     dvqpsi_us_on :     53.72s CPU     53.92s WALL (   72186 calls)
 
     cgsolve      :  53861.98s CPU  54432.75s WALL (  928114 calls)
     ch_psi       :  52311.96s CPU  52925.88s WALL (16446045 calls)
 
     ch_psi       :  52311.96s CPU  52925.88s WALL (16446045 calls)
     h_psiq       :  47141.44s CPU  47680.99s WALL (16446045 calls)
     last         :   5072.37s CPU   5111.96s WALL (16446045 calls)
 
     h_psiq       :  47141.44s CPU  47680.99s WALL (16446045 calls)
     firstfft     :  25793.61s CPU  26184.06s WALL (******** calls)
     secondfft    :  15493.67s CPU  15587.20s WALL (******** calls)
     add_vuspsi   :   1439.51s CPU   1430.53s WALL (16879430 calls)
 
     incdrhoscf   :   2980.07s CPU   3007.66s WALL (  928114 calls)
     addusdbec    :    189.80s CPU    186.38s WALL (  999922 calls)
 
     drhodvus     :      0.22s CPU      0.47s WALL (     184 calls)
 
      General routines
     calbec       :   4762.29s CPU   4656.06s WALL (35726565 calls)
     fft          :     65.56s CPU     69.75s WALL (   41984 calls)
     ffts         :     17.88s CPU     20.33s WALL (   78450 calls)
     fftw         :  39248.68s CPU  39495.79s WALL (******** calls)
     cinterpolate :     10.00s CPU     10.65s WALL (    4905 calls)
     davcio       :     24.01s CPU    233.01s WALL ( 4753823 calls)
     write_rec    :      8.52s CPU     41.18s WALL (    2464 calls)
 
TACC: Shutting down parallel environment.
TACC: Shutdown complete. Exiting.
