TACC: Starting up job 1924630
TACC: Setting up parallel environment for MVAPICH ssh-based mpirun.
TACC: Setup complete. Running job script.
TACC: starting parallel tasks...

     Program PHONON v.5.0.1 starts on 27Apr2014 at 19:44:39 

     This program is part of the open-source Quantum ESPRESSO suite
     for quantum simulation of materials; please cite
         "P. Giannozzi et al., J. Phys.:Condens. Matter 21 395502 (2009);
          URL http://www.quantum-espresso.org", 
     in publications or presentations arising from this work. More details at
     http://www.quantum-espresso.org/quote.php

     Parallel version (MPI), running on    24 processors
     K-points division:     npool     =    2
     R & G space division:  proc/pool =   12

     Ultrasoft (Vanderbilt) Pseudopotentials

   Info: using nr1, nr2, nr3 values from input

   Info: using nr1s, nr2s, nr3s values from input

     IMPORTANT: XC functional enforced from input :
     Exchange-correlation      = PBESOL ( 1 410 8 0)
     EXX-fraction              =        0.00
     Any further DFT definition will be discarded
     Please, verify this is what you really want

 
     Parallelization info
     --------------------
     sticks:   dense  smooth     PW     G-vecs:    dense   smooth      PW
     Min         250      99     29                 9035     2264     356
     Max         251     100     30                 9039     2287     359
     Sum        3001    1189    349               108427    27317    4279
 

     negative rho (up, down):  0.157E-01 0.000E+00


     Dynamical matrices for ( 6, 6, 6)  uniform grid of q-points
     (  16q-points):
       N         xq(1)         xq(2)         xq(3) 
       1   0.000000000   0.000000000   0.000000000
       2   0.166666667   0.166666667  -0.166666667
       3   0.333333333   0.333333333  -0.333333333
       4  -0.500000000  -0.500000000   0.500000000
       5   0.333333333   0.000000000   0.000000000
       6   0.500000000   0.166666667  -0.166666667
       7  -0.333333333  -0.666666667   0.666666667
       8  -0.166666667  -0.500000000   0.500000000
       9   0.000000000  -0.333333333   0.333333333
      10   0.666666667   0.000000000   0.000000000
      11  -0.166666667  -0.833333333   0.833333333
      12   0.000000000  -0.666666667   0.666666667
      13  -1.000000000   0.000000000   0.000000000
      14  -0.333333333  -0.666666667   1.000000000
      15  -0.166666667  -0.500000000   0.833333333
      16  -1.000000000   0.333333333   0.000000000

     Calculation of q =    0.0000000   0.0000000   0.0000000

                                                                                

     bravais-lattice index     =            0
     lattice parameter (alat)  =      12.0459  a.u.
     unit-cell volume          =     436.9747 (a.u.)^3
     number of atoms/cell      =            2
     number of atomic types    =            2
     kinetic-energy cut-off    =      60.0000  Ry
     charge density cut-off    =     600.0000  Ry
     convergence threshold     =      1.0E-16
     beta                      =       0.7000
     number of iterations used =            4
     Exchange-correlation      = PBESOL ( 1 410 8 0)
     EXX-fraction              =        0.00


     celldm(1)=   12.04589  celldm(2)=    0.00000  celldm(3)=    0.00000
     celldm(4)=    0.00000  celldm(5)=    0.00000  celldm(6)=    0.00000

     crystal axes: (cart. coord. in units of alat)
               a(1) = (  0.0000  0.5000  0.5000 )  
               a(2) = (  0.5000  0.0000  0.5000 )  
               a(3) = (  0.5000  0.5000  0.0000 )  

     reciprocal axes: (cart. coord. in units 2 pi/alat)
               b(1) = ( -1.0000  1.0000  1.0000 )  
               b(2) = (  1.0000 -1.0000  1.0000 )  
               b(3) = (  1.0000  1.0000 -1.0000 )  


     Atoms inside the unit cell: 

   Cartesian axes

     site n.  atom      mass           positions (alat units)
        1        Pb 207.2000   tau( 1) = (    0.00000    0.00000    0.00000  )
        2        Te 127.6000   tau( 2) = (    0.50000    0.50000    0.50000  )

     Computing dynamical matrix for 
                    q = (   0.0000000   0.0000000   0.0000000 )
 
     49 Sym.Ops. (with q -> -q+G )


     G cutoff = 2205.3068  (   9036 G-vectors)     FFT grid: ( 72, 72, 72)
     G cutoff =  882.1227  (   2286 G-vectors)  smooth grid: ( 45, 45, 45)
     number of k points=    16

     PseudoPot. # 1 for Pb read from file:
     /work/02599/asmiller/pseudo/gbrv/pbe_GBRV/pb_pbe_v1.uspp.F.UPF
     MD5 check sum: a5f44a0c8587cfbb5a05efeead6b9227
     Pseudo is Ultrasoft + core correction, Zval = 14.0
     Generated by new atomic code, or converted to UPF format
     Using radial grid of  899 points,  6 beta functions with: 
                l(1) =   0
                l(2) =   0
                l(3) =   1
                l(4) =   1
                l(5) =   2
                l(6) =   2
     Q(r) pseudized with  6 coefficients,  rinner =    1.000   1.000   1.000
                                                       1.000   1.000

     PseudoPot. # 2 for Te read from file:
     /work/02599/asmiller/pseudo/gbrv/pbe_GBRV/te_pbe_v1.uspp.F.UPF
     MD5 check sum: 749656373d74338a59c146dbd702c29e
     Pseudo is Ultrasoft + core correction, Zval =  6.0
     Generated by new atomic code, or converted to UPF format
     Using radial grid of  891 points,  5 beta functions with: 
                l(1) =   0
                l(2) =   0
                l(3) =   1
                l(4) =   1
                l(5) =   2
     Q(r) pseudized with  6 coefficients,  rinner =    1.800   1.800   1.800
                                                       1.800   1.800


     Electric field:
     Dielectric constant
     Born effective charges in two ways 


     Atomic displacements:
     There are   2 irreducible representations

     Representation     1      3 modes -T_1u G_15  G_4- To be done

     Representation     2      3 modes -T_1u G_15  G_4- To be done



     Alpha used in Ewald sum =   2.8000

     negative rho (up, down):  0.157E-01 0.000E+00
     PHONON       :     4.10s CPU         5.09s WALL


     Electric Fields Calculation

      iter #   1 total cpu time :    14.0 secs   av.it.:   7.3
      thresh= 0.100E-01 alpha_mix =  0.700 |ddv_scf|^2 =  0.424E-07

      iter #   2 total cpu time :    19.5 secs   av.it.:  16.0
      thresh= 0.206E-04 alpha_mix =  0.700 |ddv_scf|^2 =  0.627E-08

      iter #   3 total cpu time :    25.1 secs   av.it.:  15.8
      thresh= 0.792E-05 alpha_mix =  0.700 |ddv_scf|^2 =  0.441E-09

      iter #   4 total cpu time :    30.5 secs   av.it.:  15.7
      thresh= 0.210E-05 alpha_mix =  0.700 |ddv_scf|^2 =  0.230E-10

      iter #   5 total cpu time :    35.8 secs   av.it.:  15.5
      thresh= 0.480E-06 alpha_mix =  0.700 |ddv_scf|^2 =  0.133E-12

      iter #   6 total cpu time :    41.2 secs   av.it.:  15.6
      thresh= 0.365E-07 alpha_mix =  0.700 |ddv_scf|^2 =  0.337E-15

      iter #   7 total cpu time :    46.7 secs   av.it.:  16.4
      thresh= 0.183E-08 alpha_mix =  0.700 |ddv_scf|^2 =  0.212E-16

     End of electric fields calculation

          Dielectric constant in cartesian axis 

          (      38.806694372       0.000000000       0.000000000 )
          (       0.000000000      38.806694372       0.000000000 )
          (       0.000000000       0.000000000      38.806694372 )

          Effective charges (d Force / dE) in cartesian axis

           atom      1   Pb 
      Ex  (        5.41462        0.00000        0.00000 )
      Ey  (        0.00000        5.41462        0.00000 )
      Ez  (        0.00000        0.00000        5.41462 )
           atom      2   Te 
      Ex  (       -5.73618        0.00000        0.00000 )
      Ey  (        0.00000       -5.73618        0.00000 )
      Ez  (        0.00000        0.00000       -5.73618 )


     Representation #  1 modes #   1  2  3

     Self-consistent Calculation

      iter #   1 total cpu time :    53.5 secs   av.it.:   5.1
      thresh= 0.100E-01 alpha_mix =  0.700 |ddv_scf|^2 =  0.695E-08

      iter #   2 total cpu time :    59.1 secs   av.it.:  16.4
      thresh= 0.834E-05 alpha_mix =  0.700 |ddv_scf|^2 =  0.116E-08

      iter #   3 total cpu time :    64.7 secs   av.it.:  16.7
      thresh= 0.341E-05 alpha_mix =  0.700 |ddv_scf|^2 =  0.655E-10

      iter #   4 total cpu time :    70.2 secs   av.it.:  16.9
      thresh= 0.809E-06 alpha_mix =  0.700 |ddv_scf|^2 =  0.209E-11

      iter #   5 total cpu time :    75.8 secs   av.it.:  16.9
      thresh= 0.145E-06 alpha_mix =  0.700 |ddv_scf|^2 =  0.183E-13

      iter #   6 total cpu time :    81.4 secs   av.it.:  16.6
      thresh= 0.135E-07 alpha_mix =  0.700 |ddv_scf|^2 =  0.387E-15

      iter #   7 total cpu time :    87.0 secs   av.it.:  16.8
      thresh= 0.197E-08 alpha_mix =  0.700 |ddv_scf|^2 =  0.636E-17

     End of self-consistent calculation

     Convergence has been achieved 


     Representation #  2 modes #   4  5  6

     Self-consistent Calculation

      iter #   1 total cpu time :    91.5 secs   av.it.:   8.5
      thresh= 0.100E-01 alpha_mix =  0.700 |ddv_scf|^2 =  0.377E-06

      iter #   2 total cpu time :    97.2 secs   av.it.:  17.1
      thresh= 0.614E-04 alpha_mix =  0.700 |ddv_scf|^2 =  0.140E-06

      iter #   3 total cpu time :   102.7 secs   av.it.:  16.7
      thresh= 0.374E-04 alpha_mix =  0.700 |ddv_scf|^2 =  0.102E-09

      iter #   4 total cpu time :   108.4 secs   av.it.:  17.3
      thresh= 0.101E-05 alpha_mix =  0.700 |ddv_scf|^2 =  0.561E-11

      iter #   5 total cpu time :   114.1 secs   av.it.:  17.4
      thresh= 0.237E-06 alpha_mix =  0.700 |ddv_scf|^2 =  0.334E-12

      iter #   6 total cpu time :   119.7 secs   av.it.:  16.6
      thresh= 0.578E-07 alpha_mix =  0.700 |ddv_scf|^2 =  0.150E-14

      iter #   7 total cpu time :   125.3 secs   av.it.:  16.9
      thresh= 0.387E-08 alpha_mix =  0.700 |ddv_scf|^2 =  0.842E-16

     End of self-consistent calculation

     Convergence has been achieved 
 
     Number of q in the star =    1
     List of q in the star:
          1   0.000000000   0.000000000   0.000000000

          Dielectric constant in cartesian axis 

          (      38.806694372       0.000000000       0.000000000 )
          (       0.000000000      38.806694372       0.000000000 )
          (       0.000000000       0.000000000      38.806694372 )

          Effective charges (d Force / dE) in cartesian axis

           atom      1   Pb 
      Ex  (        5.41462        0.00000        0.00000 )
      Ey  (        0.00000        5.41462        0.00000 )
      Ez  (        0.00000        0.00000        5.41462 )
           atom      2   Te 
      Ex  (       -5.73618        0.00000        0.00000 )
      Ey  (        0.00000       -5.73618        0.00000 )
      Ez  (        0.00000        0.00000       -5.73618 )

          Effective charges (d P / du) in cartesian axis 

           atom      1   Pb 
      Px  (        5.58803        0.00000        0.00000 )
      Py  (        0.00000        5.58803        0.00000 )
      Pz  (        0.00000        0.00000        5.58803 )
           atom      2   Te 
      Px  (       -5.66291        0.00000        0.00000 )
      Py  (        0.00000       -5.66291        0.00000 )
      Pz  (        0.00000        0.00000       -5.66291 )

     Diagonalizing the dynamical matrix

     q = (    0.000000000   0.000000000   0.000000000 ) 

 **************************************************************************
     omega( 1) =      -0.076735 [THz] =      -2.559620 [cm-1]
     omega( 2) =      -0.076735 [THz] =      -2.559620 [cm-1]
     omega( 3) =      -0.076735 [THz] =      -2.559620 [cm-1]
     omega( 4) =       1.355852 [THz] =      45.226365 [cm-1]
     omega( 5) =       1.355852 [THz] =      45.226365 [cm-1]
     omega( 6) =       1.355852 [THz] =      45.226365 [cm-1]
 **************************************************************************

     Mode symmetry, O_h (m-3m)  point group:

     omega(  1 -  3) =         -2.6  [cm-1]   --> T_1u G_15  G_4- I  
     omega(  4 -  6) =         45.2  [cm-1]   --> T_1u G_15  G_4- I  

 **************************************************************************

     Calculation of q =    0.1666667   0.1666667  -0.1666667
 
     Parallelization info
     --------------------
     sticks:   dense  smooth     PW     G-vecs:    dense   smooth      PW
     Min         250      99     29                 9035     2272     365
     Max         251     100     31                 9039     2283     366
     Sum        3001    1189    361               108427    27317    4381
 


     bravais-lattice index     =            0
     lattice parameter (alat)  =      12.0459  a.u.
     unit-cell volume          =     436.9747 (a.u.)^3
     number of atoms/cell      =            2
     number of atomic types    =            2
     number of electrons       =        20.00
     number of Kohn-Sham states=           10
     kinetic-energy cutoff     =      60.0000  Ry
     charge density cutoff     =     600.0000  Ry
     Exchange-correlation      = PBESOL ( 1 410 8 0)
     EXX-fraction              =        0.00

     celldm(1)=  12.045886  celldm(2)=   0.000000  celldm(3)=   0.000000
     celldm(4)=   0.000000  celldm(5)=   0.000000  celldm(6)=   0.000000

     crystal axes: (cart. coord. in units of alat)
               a(1) = (   0.000000   0.500000   0.500000 )  
               a(2) = (   0.500000   0.000000   0.500000 )  
               a(3) = (   0.500000   0.500000   0.000000 )  

     reciprocal axes: (cart. coord. in units 2 pi/alat)
               b(1) = ( -1.000000  1.000000  1.000000 )  
               b(2) = (  1.000000 -1.000000  1.000000 )  
               b(3) = (  1.000000  1.000000 -1.000000 )  


     PseudoPot. # 1 for Pb read from file:
     /work/02599/asmiller/pseudo/gbrv/pbe_GBRV/pb_pbe_v1.uspp.F.UPF
     MD5 check sum: a5f44a0c8587cfbb5a05efeead6b9227
     Pseudo is Ultrasoft + core correction, Zval = 14.0
     Generated by new atomic code, or converted to UPF format
     Using radial grid of  899 points,  6 beta functions with: 
                l(1) =   0
                l(2) =   0
                l(3) =   1
                l(4) =   1
                l(5) =   2
                l(6) =   2
     Q(r) pseudized with  6 coefficients,  rinner =    1.000   1.000   1.000
                                                       1.000   1.000

     PseudoPot. # 2 for Te read from file:
     /work/02599/asmiller/pseudo/gbrv/pbe_GBRV/te_pbe_v1.uspp.F.UPF
     MD5 check sum: 749656373d74338a59c146dbd702c29e
     Pseudo is Ultrasoft + core correction, Zval =  6.0
     Generated by new atomic code, or converted to UPF format
     Using radial grid of  891 points,  5 beta functions with: 
                l(1) =   0
                l(2) =   0
                l(3) =   1
                l(4) =   1
                l(5) =   2
     Q(r) pseudized with  6 coefficients,  rinner =    1.800   1.800   1.800
                                                       1.800   1.800

     atomic species   valence    mass     pseudopotential
        Pb            14.00   207.20000     Pb( 1.00)
        Te             6.00   127.60000     Te( 1.00)

     48 Sym. Ops., with inversion, found



   Cartesian axes

     site n.     atom                  positions (alat units)
         1           Pb  tau(   1) = (   0.0000000   0.0000000   0.0000000  )
         2           Te  tau(   2) = (   0.5000000   0.5000000   0.5000000  )

     number of k points=   112

     Number of k-points >= 100: set verbosity='high' to print them.

     Dense  grid:   108427 G-vectors     FFT dimensions: (  72,  72,  72)

     Smooth grid:    27317 G-vectors     FFT dimensions: (  45,  45,  45)

     Largest allocated arrays     est. size (Mb)     dimensions
        Kohn-Sham Wavefunctions         0.05 Mb     (    309,   10)
        NL pseudopotentials             0.15 Mb     (    309,   31)
        Each V/rho on FFT grid          0.47 Mb     (  31104)
        Each G-vector array             0.07 Mb     (   9036)
        G-vector shells                 0.01 Mb     (    729)
     Largest temporary arrays     est. size (Mb)     dimensions
        Auxiliary wavefunctions         0.19 Mb     (    309,   40)
        Each subspace H/S matrix        0.02 Mb     (  40,  40)
        Each <psi_i|beta_j> matrix      0.00 Mb     (     31,   10)

     The potential is recalculated from file :
     ./_ph0/PbTe.save/charge-density.dat


     negative rho (up, down):  0.157E-01 0.000E+00
     Starting wfc are   13 atomic wfcs

     total cpu time spent up to now is        0.7 secs

     per-process dynamical memory:    65.0 Mb

     Band Structure Calculation
     Davidson diagonalization with overlap

     ethr =  5.00E-11,  avg # of iterations = 30.5

     total cpu time spent up to now is       11.2 secs

     End of band structure calculation

     Number of k-points >= 100: set verbosity='high' to print the bands.

     Writing output data file PbTe.save

                                                                                

     bravais-lattice index     =            0
     lattice parameter (alat)  =      12.0459  a.u.
     unit-cell volume          =     436.9747 (a.u.)^3
     number of atoms/cell      =            2
     number of atomic types    =            2
     kinetic-energy cut-off    =      60.0000  Ry
     charge density cut-off    =     600.0000  Ry
     convergence threshold     =      1.0E-16
     beta                      =       0.7000
     number of iterations used =            4
     Exchange-correlation      = PBESOL ( 1 410 8 0)
     EXX-fraction              =        0.00


     celldm(1)=   12.04589  celldm(2)=    0.00000  celldm(3)=    0.00000
     celldm(4)=    0.00000  celldm(5)=    0.00000  celldm(6)=    0.00000

     crystal axes: (cart. coord. in units of alat)
               a(1) = (  0.0000  0.5000  0.5000 )  
               a(2) = (  0.5000  0.0000  0.5000 )  
               a(3) = (  0.5000  0.5000  0.0000 )  

     reciprocal axes: (cart. coord. in units 2 pi/alat)
               b(1) = ( -1.0000  1.0000  1.0000 )  
               b(2) = (  1.0000 -1.0000  1.0000 )  
               b(3) = (  1.0000  1.0000 -1.0000 )  


     Atoms inside the unit cell: 

   Cartesian axes

     site n.  atom      mass           positions (alat units)
        1        Pb 207.2000   tau( 1) = (    0.00000    0.00000    0.00000  )
        2        Te 127.6000   tau( 2) = (    0.50000    0.50000    0.50000  )

     Computing dynamical matrix for 
                    q = (   0.1666667   0.1666667  -0.1666667 )
 
      6 Sym.Ops. (no q -> -q+G )


     G cutoff = 2205.3068  (   9036 G-vectors)     FFT grid: ( 72, 72, 72)
     G cutoff =  882.1227  (   2283 G-vectors)  smooth grid: ( 45, 45, 45)
     number of k points=   112

     PseudoPot. # 1 for Pb read from file:
     /work/02599/asmiller/pseudo/gbrv/pbe_GBRV/pb_pbe_v1.uspp.F.UPF
     MD5 check sum: a5f44a0c8587cfbb5a05efeead6b9227
     Pseudo is Ultrasoft + core correction, Zval = 14.0
     Generated by new atomic code, or converted to UPF format
     Using radial grid of  899 points,  6 beta functions with: 
                l(1) =   0
                l(2) =   0
                l(3) =   1
                l(4) =   1
                l(5) =   2
                l(6) =   2
     Q(r) pseudized with  6 coefficients,  rinner =    1.000   1.000   1.000
                                                       1.000   1.000

     PseudoPot. # 2 for Te read from file:
     /work/02599/asmiller/pseudo/gbrv/pbe_GBRV/te_pbe_v1.uspp.F.UPF
     MD5 check sum: 749656373d74338a59c146dbd702c29e
     Pseudo is Ultrasoft + core correction, Zval =  6.0
     Generated by new atomic code, or converted to UPF format
     Using radial grid of  891 points,  5 beta functions with: 
                l(1) =   0
                l(2) =   0
                l(3) =   1
                l(4) =   1
                l(5) =   2
     Q(r) pseudized with  6 coefficients,  rinner =    1.800   1.800   1.800
                                                       1.800   1.800


     Atomic displacements:
     There are   4 irreducible representations

     Representation     1      1 modes -A_1  L_1 To be done

     Representation     2      1 modes -A_1  L_1 To be done

     Representation     3      2 modes -E    L_3 To be done

     Representation     4      2 modes -E    L_3 To be done



     Alpha used in Ewald sum =   2.8000

     negative rho (up, down):  0.157E-01 0.000E+00
     PHONON       :  2m14.12s CPU     2m21.15s WALL



     Representation #  1 mode #   1

     Self-consistent Calculation

      iter #   1 total cpu time :   143.4 secs   av.it.:   6.3
      thresh= 0.100E-01 alpha_mix =  0.700 |ddv_scf|^2 =  0.103E-02

      iter #   2 total cpu time :   147.1 secs   av.it.:  13.4
      thresh= 0.321E-02 alpha_mix =  0.700 |ddv_scf|^2 =  0.123E+00

      iter #   3 total cpu time :   150.2 secs   av.it.:  10.9
      thresh= 0.100E-01 alpha_mix =  0.700 |ddv_scf|^2 =  0.810E-07

      iter #   4 total cpu time :   154.5 secs   av.it.:  16.3
      thresh= 0.285E-04 alpha_mix =  0.700 |ddv_scf|^2 =  0.130E-06

      iter #   5 total cpu time :   158.5 secs   av.it.:  14.7
      thresh= 0.360E-04 alpha_mix =  0.700 |ddv_scf|^2 =  0.472E-08

      iter #   6 total cpu time :   162.2 secs   av.it.:  13.8
      thresh= 0.687E-05 alpha_mix =  0.700 |ddv_scf|^2 =  0.403E-09

      iter #   7 total cpu time :   165.8 secs   av.it.:  13.1
      thresh= 0.201E-05 alpha_mix =  0.700 |ddv_scf|^2 =  0.478E-11

      iter #   8 total cpu time :   169.5 secs   av.it.:  13.5
      thresh= 0.219E-06 alpha_mix =  0.700 |ddv_scf|^2 =  0.307E-12

      iter #   9 total cpu time :   173.3 secs   av.it.:  14.3
      thresh= 0.554E-07 alpha_mix =  0.700 |ddv_scf|^2 =  0.167E-11

      iter #  10 total cpu time :   176.5 secs   av.it.:  11.0
      thresh= 0.129E-06 alpha_mix =  0.700 |ddv_scf|^2 =  0.125E-13

      iter #  11 total cpu time :   180.4 secs   av.it.:  14.3
      thresh= 0.112E-07 alpha_mix =  0.700 |ddv_scf|^2 =  0.223E-15

      iter #  12 total cpu time :   184.4 secs   av.it.:  15.1
      thresh= 0.149E-08 alpha_mix =  0.700 |ddv_scf|^2 =  0.152E-16

     End of self-consistent calculation

     Convergence has been achieved 


     Representation #  2 mode #   2

     Self-consistent Calculation

      iter #   1 total cpu time :   187.5 secs   av.it.:  10.0
      thresh= 0.100E-01 alpha_mix =  0.700 |ddv_scf|^2 =  0.555E-02

      iter #   2 total cpu time :   191.2 secs   av.it.:  13.4
      thresh= 0.745E-02 alpha_mix =  0.700 |ddv_scf|^2 =  0.664E+00

      iter #   3 total cpu time :   194.7 secs   av.it.:  12.5
      thresh= 0.100E-01 alpha_mix =  0.700 |ddv_scf|^2 =  0.593E-05

      iter #   4 total cpu time :   198.8 secs   av.it.:  15.4
      thresh= 0.243E-03 alpha_mix =  0.700 |ddv_scf|^2 =  0.218E-05

      iter #   5 total cpu time :   202.8 secs   av.it.:  15.1
      thresh= 0.148E-03 alpha_mix =  0.700 |ddv_scf|^2 =  0.444E-08

      iter #   6 total cpu time :   207.0 secs   av.it.:  15.6
      thresh= 0.667E-05 alpha_mix =  0.700 |ddv_scf|^2 =  0.108E-08

      iter #   7 total cpu time :   210.7 secs   av.it.:  13.8
      thresh= 0.328E-05 alpha_mix =  0.700 |ddv_scf|^2 =  0.123E-09

      iter #   8 total cpu time :   214.4 secs   av.it.:  13.3
      thresh= 0.111E-05 alpha_mix =  0.700 |ddv_scf|^2 =  0.334E-10

      iter #   9 total cpu time :   217.9 secs   av.it.:  12.7
      thresh= 0.578E-06 alpha_mix =  0.700 |ddv_scf|^2 =  0.463E-12

      iter #  10 total cpu time :   221.7 secs   av.it.:  14.0
      thresh= 0.680E-07 alpha_mix =  0.700 |ddv_scf|^2 =  0.118E-11

      iter #  11 total cpu time :   225.2 secs   av.it.:  12.8
      thresh= 0.109E-06 alpha_mix =  0.700 |ddv_scf|^2 =  0.162E-14

      iter #  12 total cpu time :   229.3 secs   av.it.:  15.6
      thresh= 0.403E-08 alpha_mix =  0.700 |ddv_scf|^2 =  0.286E-16

     End of self-consistent calculation

     Convergence has been achieved 


     Representation #  3 modes #   3  4

     Self-consistent Calculation

      iter #   1 total cpu time :   233.1 secs   av.it.:   5.0
      thresh= 0.100E-01 alpha_mix =  0.700 |ddv_scf|^2 =  0.162E-07

      iter #   2 total cpu time :   242.0 secs   av.it.:  17.2
      thresh= 0.127E-04 alpha_mix =  0.700 |ddv_scf|^2 =  0.216E-08

      iter #   3 total cpu time :   251.0 secs   av.it.:  17.6
      thresh= 0.465E-05 alpha_mix =  0.700 |ddv_scf|^2 =  0.133E-09

      iter #   4 total cpu time :   260.0 secs   av.it.:  17.8
      thresh= 0.115E-05 alpha_mix =  0.700 |ddv_scf|^2 =  0.668E-11

      iter #   5 total cpu time :   269.0 secs   av.it.:  17.6
      thresh= 0.258E-06 alpha_mix =  0.700 |ddv_scf|^2 =  0.400E-13

      iter #   6 total cpu time :   278.1 secs   av.it.:  17.7
      thresh= 0.200E-07 alpha_mix =  0.700 |ddv_scf|^2 =  0.907E-15

      iter #   7 total cpu time :   287.0 secs   av.it.:  17.4
      thresh= 0.301E-08 alpha_mix =  0.700 |ddv_scf|^2 =  0.158E-16

     End of self-consistent calculation

     Convergence has been achieved 


     Representation #  4 modes #   5  6

     Self-consistent Calculation

      iter #   1 total cpu time :   292.8 secs   av.it.:   9.1
      thresh= 0.100E-01 alpha_mix =  0.700 |ddv_scf|^2 =  0.853E-06

      iter #   2 total cpu time :   301.9 secs   av.it.:  17.8
      thresh= 0.924E-04 alpha_mix =  0.700 |ddv_scf|^2 =  0.300E-06

      iter #   3 total cpu time :   310.8 secs   av.it.:  17.3
      thresh= 0.548E-04 alpha_mix =  0.700 |ddv_scf|^2 =  0.209E-09

      iter #   4 total cpu time :   320.0 secs   av.it.:  18.1
      thresh= 0.144E-05 alpha_mix =  0.700 |ddv_scf|^2 =  0.124E-10

      iter #   5 total cpu time :   329.2 secs   av.it.:  18.2
      thresh= 0.352E-06 alpha_mix =  0.700 |ddv_scf|^2 =  0.695E-12

      iter #   6 total cpu time :   338.2 secs   av.it.:  17.5
      thresh= 0.833E-07 alpha_mix =  0.700 |ddv_scf|^2 =  0.308E-14

      iter #   7 total cpu time :   347.1 secs   av.it.:  17.5
      thresh= 0.555E-08 alpha_mix =  0.700 |ddv_scf|^2 =  0.163E-15

      iter #   8 total cpu time :   356.0 secs   av.it.:  17.4
      thresh= 0.128E-08 alpha_mix =  0.700 |ddv_scf|^2 =  0.117E-17

     End of self-consistent calculation

     Convergence has been achieved 
 
     Number of q in the star =    8
     List of q in the star:
          1   0.166666667   0.166666667  -0.166666667
          2   0.166666667  -0.166666667  -0.166666667
          3   0.166666667   0.166666667   0.166666667
          4  -0.166666667  -0.166666667   0.166666667
          5  -0.166666667   0.166666667  -0.166666667
          6  -0.166666667  -0.166666667  -0.166666667
          7  -0.166666667   0.166666667   0.166666667
          8   0.166666667  -0.166666667   0.166666667

     Diagonalizing the dynamical matrix

     q = (    0.166666667   0.166666667  -0.166666667 ) 

 **************************************************************************
     omega( 1) =       0.901391 [THz] =      30.067181 [cm-1]
     omega( 2) =       0.901391 [THz] =      30.067181 [cm-1]
     omega( 3) =       1.216806 [THz] =      40.588277 [cm-1]
     omega( 4) =       2.667009 [THz] =      88.961852 [cm-1]
     omega( 5) =       2.667009 [THz] =      88.961852 [cm-1]
     omega( 6) =       3.644024 [THz] =     121.551562 [cm-1]
 **************************************************************************

     Mode symmetry, C_3v (3m)   point group:

     omega(  1 -  2) =         30.1  [cm-1]   --> E    L_3           
     omega(  3 -  3) =         40.6  [cm-1]   --> A_1  L_1           
     omega(  4 -  5) =         89.0  [cm-1]   --> E    L_3           
     omega(  6 -  6) =        121.6  [cm-1]   --> A_1  L_1           

 **************************************************************************

     Calculation of q =    0.3333333   0.3333333  -0.3333333
 
     Parallelization info
     --------------------
     sticks:   dense  smooth     PW     G-vecs:    dense   smooth      PW
     Min         250      99     29                 9035     2272     365
     Max         251     100     31                 9039     2283     366
     Sum        3001    1189    361               108427    27317    4381
 


     bravais-lattice index     =            0
     lattice parameter (alat)  =      12.0459  a.u.
     unit-cell volume          =     436.9747 (a.u.)^3
     number of atoms/cell      =            2
     number of atomic types    =            2
     number of electrons       =        20.00
     number of Kohn-Sham states=           10
     kinetic-energy cutoff     =      60.0000  Ry
     charge density cutoff     =     600.0000  Ry
     Exchange-correlation      = PBESOL ( 1 410 8 0)
     EXX-fraction              =        0.00

     celldm(1)=  12.045886  celldm(2)=   0.000000  celldm(3)=   0.000000
     celldm(4)=   0.000000  celldm(5)=   0.000000  celldm(6)=   0.000000

     crystal axes: (cart. coord. in units of alat)
               a(1) = (   0.000000   0.500000   0.500000 )  
               a(2) = (   0.500000   0.000000   0.500000 )  
               a(3) = (   0.500000   0.500000   0.000000 )  

     reciprocal axes: (cart. coord. in units 2 pi/alat)
               b(1) = ( -1.000000  1.000000  1.000000 )  
               b(2) = (  1.000000 -1.000000  1.000000 )  
               b(3) = (  1.000000  1.000000 -1.000000 )  


     PseudoPot. # 1 for Pb read from file:
     /work/02599/asmiller/pseudo/gbrv/pbe_GBRV/pb_pbe_v1.uspp.F.UPF
     MD5 check sum: a5f44a0c8587cfbb5a05efeead6b9227
     Pseudo is Ultrasoft + core correction, Zval = 14.0
     Generated by new atomic code, or converted to UPF format
     Using radial grid of  899 points,  6 beta functions with: 
                l(1) =   0
                l(2) =   0
                l(3) =   1
                l(4) =   1
                l(5) =   2
                l(6) =   2
     Q(r) pseudized with  6 coefficients,  rinner =    1.000   1.000   1.000
                                                       1.000   1.000

     PseudoPot. # 2 for Te read from file:
     /work/02599/asmiller/pseudo/gbrv/pbe_GBRV/te_pbe_v1.uspp.F.UPF
     MD5 check sum: 749656373d74338a59c146dbd702c29e
     Pseudo is Ultrasoft + core correction, Zval =  6.0
     Generated by new atomic code, or converted to UPF format
     Using radial grid of  891 points,  5 beta functions with: 
                l(1) =   0
                l(2) =   0
                l(3) =   1
                l(4) =   1
                l(5) =   2
     Q(r) pseudized with  6 coefficients,  rinner =    1.800   1.800   1.800
                                                       1.800   1.800

     atomic species   valence    mass     pseudopotential
        Pb            14.00   207.20000     Pb( 1.00)
        Te             6.00   127.60000     Te( 1.00)

     48 Sym. Ops., with inversion, found



   Cartesian axes

     site n.     atom                  positions (alat units)
         1           Pb  tau(   1) = (   0.0000000   0.0000000   0.0000000  )
         2           Te  tau(   2) = (   0.5000000   0.5000000   0.5000000  )

     number of k points=   112

     Number of k-points >= 100: set verbosity='high' to print them.

     Dense  grid:   108427 G-vectors     FFT dimensions: (  72,  72,  72)

     Smooth grid:    27317 G-vectors     FFT dimensions: (  45,  45,  45)

     Largest allocated arrays     est. size (Mb)     dimensions
        Kohn-Sham Wavefunctions         0.04 Mb     (    293,   10)
        NL pseudopotentials             0.14 Mb     (    293,   31)
        Each V/rho on FFT grid          0.47 Mb     (  31104)
        Each G-vector array             0.07 Mb     (   9036)
        G-vector shells                 0.01 Mb     (    729)
     Largest temporary arrays     est. size (Mb)     dimensions
        Auxiliary wavefunctions         0.18 Mb     (    293,   40)
        Each subspace H/S matrix        0.02 Mb     (  40,  40)
        Each <psi_i|beta_j> matrix      0.00 Mb     (     31,   10)

     The potential is recalculated from file :
     ./_ph0/PbTe.save/charge-density.dat


     negative rho (up, down):  0.157E-01 0.000E+00
     Starting wfc are   13 atomic wfcs

     total cpu time spent up to now is       12.2 secs

     per-process dynamical memory:    71.5 Mb

     Band Structure Calculation
     Davidson diagonalization with overlap

     ethr =  5.00E-11,  avg # of iterations = 30.5

     total cpu time spent up to now is       22.9 secs

     End of band structure calculation

     Number of k-points >= 100: set verbosity='high' to print the bands.

     Writing output data file PbTe.save

                                                                                

     bravais-lattice index     =            0
     lattice parameter (alat)  =      12.0459  a.u.
     unit-cell volume          =     436.9747 (a.u.)^3
     number of atoms/cell      =            2
     number of atomic types    =            2
     kinetic-energy cut-off    =      60.0000  Ry
     charge density cut-off    =     600.0000  Ry
     convergence threshold     =      1.0E-16
     beta                      =       0.7000
     number of iterations used =            4
     Exchange-correlation      = PBESOL ( 1 410 8 0)
     EXX-fraction              =        0.00


     celldm(1)=   12.04589  celldm(2)=    0.00000  celldm(3)=    0.00000
     celldm(4)=    0.00000  celldm(5)=    0.00000  celldm(6)=    0.00000

     crystal axes: (cart. coord. in units of alat)
               a(1) = (  0.0000  0.5000  0.5000 )  
               a(2) = (  0.5000  0.0000  0.5000 )  
               a(3) = (  0.5000  0.5000  0.0000 )  

     reciprocal axes: (cart. coord. in units 2 pi/alat)
               b(1) = ( -1.0000  1.0000  1.0000 )  
               b(2) = (  1.0000 -1.0000  1.0000 )  
               b(3) = (  1.0000  1.0000 -1.0000 )  


     Atoms inside the unit cell: 

   Cartesian axes

     site n.  atom      mass           positions (alat units)
        1        Pb 207.2000   tau( 1) = (    0.00000    0.00000    0.00000  )
        2        Te 127.6000   tau( 2) = (    0.50000    0.50000    0.50000  )

     Computing dynamical matrix for 
                    q = (   0.3333333   0.3333333  -0.3333333 )
 
      6 Sym.Ops. (no q -> -q+G )


     G cutoff = 2205.3068  (   9036 G-vectors)     FFT grid: ( 72, 72, 72)
     G cutoff =  882.1227  (   2283 G-vectors)  smooth grid: ( 45, 45, 45)
     number of k points=   112

     PseudoPot. # 1 for Pb read from file:
     /work/02599/asmiller/pseudo/gbrv/pbe_GBRV/pb_pbe_v1.uspp.F.UPF
     MD5 check sum: a5f44a0c8587cfbb5a05efeead6b9227
     Pseudo is Ultrasoft + core correction, Zval = 14.0
     Generated by new atomic code, or converted to UPF format
     Using radial grid of  899 points,  6 beta functions with: 
                l(1) =   0
                l(2) =   0
                l(3) =   1
                l(4) =   1
                l(5) =   2
                l(6) =   2
     Q(r) pseudized with  6 coefficients,  rinner =    1.000   1.000   1.000
                                                       1.000   1.000

     PseudoPot. # 2 for Te read from file:
     /work/02599/asmiller/pseudo/gbrv/pbe_GBRV/te_pbe_v1.uspp.F.UPF
     MD5 check sum: 749656373d74338a59c146dbd702c29e
     Pseudo is Ultrasoft + core correction, Zval =  6.0
     Generated by new atomic code, or converted to UPF format
     Using radial grid of  891 points,  5 beta functions with: 
                l(1) =   0
                l(2) =   0
                l(3) =   1
                l(4) =   1
                l(5) =   2
     Q(r) pseudized with  6 coefficients,  rinner =    1.800   1.800   1.800
                                                       1.800   1.800


     Atomic displacements:
     There are   4 irreducible representations

     Representation     1      1 modes -A_1  L_1 To be done

     Representation     2      1 modes -A_1  L_1 To be done

     Representation     3      2 modes -E    L_3 To be done

     Representation     4      2 modes -E    L_3 To be done



     Alpha used in Ewald sum =   2.8000

     negative rho (up, down):  0.157E-01 0.000E+00
     PHONON       :  5m51.73s CPU     6m11.53s WALL



     Representation #  1 mode #   1

     Self-consistent Calculation

      iter #   1 total cpu time :   373.6 secs   av.it.:   5.8
      thresh= 0.100E-01 alpha_mix =  0.700 |ddv_scf|^2 =  0.431E-04

      iter #   2 total cpu time :   377.7 secs   av.it.:  14.9
      thresh= 0.657E-03 alpha_mix =  0.700 |ddv_scf|^2 =  0.851E-03

      iter #   3 total cpu time :   381.1 secs   av.it.:  11.9
      thresh= 0.292E-02 alpha_mix =  0.700 |ddv_scf|^2 =  0.344E-06

      iter #   4 total cpu time :   385.3 secs   av.it.:  15.5
      thresh= 0.587E-04 alpha_mix =  0.700 |ddv_scf|^2 =  0.165E-07

      iter #   5 total cpu time :   389.4 secs   av.it.:  15.0
      thresh= 0.128E-04 alpha_mix =  0.700 |ddv_scf|^2 =  0.312E-09

      iter #   6 total cpu time :   393.6 secs   av.it.:  15.1
      thresh= 0.177E-05 alpha_mix =  0.700 |ddv_scf|^2 =  0.269E-10

      iter #   7 total cpu time :   397.7 secs   av.it.:  15.2
      thresh= 0.518E-06 alpha_mix =  0.700 |ddv_scf|^2 =  0.193E-12

      iter #   8 total cpu time :   402.1 secs   av.it.:  16.3
      thresh= 0.439E-07 alpha_mix =  0.700 |ddv_scf|^2 =  0.503E-13

      iter #   9 total cpu time :   406.4 secs   av.it.:  16.0
      thresh= 0.224E-07 alpha_mix =  0.700 |ddv_scf|^2 =  0.919E-14

      iter #  10 total cpu time :   410.5 secs   av.it.:  15.0
      thresh= 0.959E-08 alpha_mix =  0.700 |ddv_scf|^2 =  0.629E-14

      iter #  11 total cpu time :   414.4 secs   av.it.:  13.9
      thresh= 0.793E-08 alpha_mix =  0.700 |ddv_scf|^2 =  0.175E-14

      iter #  12 total cpu time :   418.5 secs   av.it.:  14.8
      thresh= 0.418E-08 alpha_mix =  0.700 |ddv_scf|^2 =  0.790E-16

     End of self-consistent calculation

     Convergence has been achieved 


     Representation #  2 mode #   2

     Self-consistent Calculation

      iter #   1 total cpu time :   422.4 secs   av.it.:  10.0
      thresh= 0.100E-01 alpha_mix =  0.700 |ddv_scf|^2 =  0.264E-03

      iter #   2 total cpu time :   426.6 secs   av.it.:  15.0
      thresh= 0.162E-02 alpha_mix =  0.700 |ddv_scf|^2 =  0.523E-02

      iter #   3 total cpu time :   430.0 secs   av.it.:  11.8
      thresh= 0.723E-02 alpha_mix =  0.700 |ddv_scf|^2 =  0.403E-05

      iter #   4 total cpu time :   434.1 secs   av.it.:  15.3
      thresh= 0.201E-03 alpha_mix =  0.700 |ddv_scf|^2 =  0.118E-06

      iter #   5 total cpu time :   438.2 secs   av.it.:  14.8
      thresh= 0.344E-04 alpha_mix =  0.700 |ddv_scf|^2 =  0.740E-08

      iter #   6 total cpu time :   442.4 secs   av.it.:  15.5
      thresh= 0.860E-05 alpha_mix =  0.700 |ddv_scf|^2 =  0.237E-09

      iter #   7 total cpu time :   446.6 secs   av.it.:  15.1
      thresh= 0.154E-05 alpha_mix =  0.700 |ddv_scf|^2 =  0.473E-11

      iter #   8 total cpu time :   450.8 secs   av.it.:  15.4
      thresh= 0.218E-06 alpha_mix =  0.700 |ddv_scf|^2 =  0.929E-13

      iter #   9 total cpu time :   455.0 secs   av.it.:  15.6
      thresh= 0.305E-07 alpha_mix =  0.700 |ddv_scf|^2 =  0.187E-12

      iter #  10 total cpu time :   458.9 secs   av.it.:  13.8
      thresh= 0.432E-07 alpha_mix =  0.700 |ddv_scf|^2 =  0.161E-13

      iter #  11 total cpu time :   462.9 secs   av.it.:  14.7
      thresh= 0.127E-07 alpha_mix =  0.700 |ddv_scf|^2 =  0.203E-14

      iter #  12 total cpu time :   467.1 secs   av.it.:  15.3
      thresh= 0.451E-08 alpha_mix =  0.700 |ddv_scf|^2 =  0.233E-14

      iter #  13 total cpu time :   471.0 secs   av.it.:  13.7
      thresh= 0.482E-08 alpha_mix =  0.700 |ddv_scf|^2 =  0.179E-16

     End of self-consistent calculation

     Convergence has been achieved 


     Representation #  3 modes #   3  4

     Self-consistent Calculation

      iter #   1 total cpu time :   474.6 secs   av.it.:   4.4
      thresh= 0.100E-01 alpha_mix =  0.700 |ddv_scf|^2 =  0.186E-07

      iter #   2 total cpu time :   483.6 secs   av.it.:  17.1
      thresh= 0.136E-04 alpha_mix =  0.700 |ddv_scf|^2 =  0.194E-08

      iter #   3 total cpu time :   492.8 secs   av.it.:  17.6
      thresh= 0.440E-05 alpha_mix =  0.700 |ddv_scf|^2 =  0.942E-10

      iter #   4 total cpu time :   502.1 secs   av.it.:  17.8
      thresh= 0.971E-06 alpha_mix =  0.700 |ddv_scf|^2 =  0.103E-10

      iter #   5 total cpu time :   511.3 secs   av.it.:  17.5
      thresh= 0.322E-06 alpha_mix =  0.700 |ddv_scf|^2 =  0.625E-13

      iter #   6 total cpu time :   520.5 secs   av.it.:  17.8
      thresh= 0.250E-07 alpha_mix =  0.700 |ddv_scf|^2 =  0.107E-14

      iter #   7 total cpu time :   529.7 secs   av.it.:  17.4
      thresh= 0.328E-08 alpha_mix =  0.700 |ddv_scf|^2 =  0.315E-16

     End of self-consistent calculation

     Convergence has been achieved 


     Representation #  4 modes #   5  6

     Self-consistent Calculation

      iter #   1 total cpu time :   535.6 secs   av.it.:   9.1
      thresh= 0.100E-01 alpha_mix =  0.700 |ddv_scf|^2 =  0.906E-06

      iter #   2 total cpu time :   545.0 secs   av.it.:  17.9
      thresh= 0.952E-04 alpha_mix =  0.700 |ddv_scf|^2 =  0.329E-06

      iter #   3 total cpu time :   554.1 secs   av.it.:  17.2
      thresh= 0.574E-04 alpha_mix =  0.700 |ddv_scf|^2 =  0.191E-09

      iter #   4 total cpu time :   563.5 secs   av.it.:  18.1
      thresh= 0.138E-05 alpha_mix =  0.700 |ddv_scf|^2 =  0.146E-10

      iter #   5 total cpu time :   573.0 secs   av.it.:  18.1
      thresh= 0.382E-06 alpha_mix =  0.700 |ddv_scf|^2 =  0.655E-12

      iter #   6 total cpu time :   582.1 secs   av.it.:  17.5
      thresh= 0.809E-07 alpha_mix =  0.700 |ddv_scf|^2 =  0.289E-14

      iter #   7 total cpu time :   591.3 secs   av.it.:  17.5
      thresh= 0.538E-08 alpha_mix =  0.700 |ddv_scf|^2 =  0.135E-15

      iter #   8 total cpu time :   600.5 secs   av.it.:  17.6
      thresh= 0.116E-08 alpha_mix =  0.700 |ddv_scf|^2 =  0.309E-17

     End of self-consistent calculation

     Convergence has been achieved 
 
     Number of q in the star =    8
     List of q in the star:
          1   0.333333333   0.333333333  -0.333333333
          2   0.333333333  -0.333333333  -0.333333333
          3   0.333333333   0.333333333   0.333333333
          4  -0.333333333  -0.333333333   0.333333333
          5  -0.333333333   0.333333333  -0.333333333
          6  -0.333333333  -0.333333333  -0.333333333
          7  -0.333333333   0.333333333   0.333333333
          8   0.333333333  -0.333333333   0.333333333

     Diagonalizing the dynamical matrix

     q = (    0.333333333   0.333333333  -0.333333333 ) 

 **************************************************************************
     omega( 1) =       1.565662 [THz] =      52.224866 [cm-1]
     omega( 2) =       1.565662 [THz] =      52.224866 [cm-1]
     omega( 3) =       2.224018 [THz] =      74.185266 [cm-1]
     omega( 4) =       3.035146 [THz] =     101.241565 [cm-1]
     omega( 5) =       3.035146 [THz] =     101.241565 [cm-1]
     omega( 6) =       3.636137 [THz] =     121.288482 [cm-1]
 **************************************************************************

     Mode symmetry, C_3v (3m)   point group:

     omega(  1 -  2) =         52.2  [cm-1]   --> E    L_3           
     omega(  3 -  3) =         74.2  [cm-1]   --> A_1  L_1           
     omega(  4 -  5) =        101.2  [cm-1]   --> E    L_3           
     omega(  6 -  6) =        121.3  [cm-1]   --> A_1  L_1           

 **************************************************************************

     Calculation of q =   -0.5000000  -0.5000000   0.5000000
 
     Parallelization info
     --------------------
     sticks:   dense  smooth     PW     G-vecs:    dense   smooth      PW
     Min         250      99     31                 9035     2270     417
     Max         251     100     32                 9039     2287     421
     Sum        3001    1189    379               108427    27317    5029
 


     bravais-lattice index     =            0
     lattice parameter (alat)  =      12.0459  a.u.
     unit-cell volume          =     436.9747 (a.u.)^3
     number of atoms/cell      =            2
     number of atomic types    =            2
     number of electrons       =        20.00
     number of Kohn-Sham states=           10
     kinetic-energy cutoff     =      60.0000  Ry
     charge density cutoff     =     600.0000  Ry
     Exchange-correlation      = PBESOL ( 1 410 8 0)
     EXX-fraction              =        0.00

     celldm(1)=  12.045886  celldm(2)=   0.000000  celldm(3)=   0.000000
     celldm(4)=   0.000000  celldm(5)=   0.000000  celldm(6)=   0.000000

     crystal axes: (cart. coord. in units of alat)
               a(1) = (   0.000000   0.500000   0.500000 )  
               a(2) = (   0.500000   0.000000   0.500000 )  
               a(3) = (   0.500000   0.500000   0.000000 )  

     reciprocal axes: (cart. coord. in units 2 pi/alat)
               b(1) = ( -1.000000  1.000000  1.000000 )  
               b(2) = (  1.000000 -1.000000  1.000000 )  
               b(3) = (  1.000000  1.000000 -1.000000 )  


     PseudoPot. # 1 for Pb read from file:
     /work/02599/asmiller/pseudo/gbrv/pbe_GBRV/pb_pbe_v1.uspp.F.UPF
     MD5 check sum: a5f44a0c8587cfbb5a05efeead6b9227
     Pseudo is Ultrasoft + core correction, Zval = 14.0
     Generated by new atomic code, or converted to UPF format
     Using radial grid of  899 points,  6 beta functions with: 
                l(1) =   0
                l(2) =   0
                l(3) =   1
                l(4) =   1
                l(5) =   2
                l(6) =   2
     Q(r) pseudized with  6 coefficients,  rinner =    1.000   1.000   1.000
                                                       1.000   1.000

     PseudoPot. # 2 for Te read from file:
     /work/02599/asmiller/pseudo/gbrv/pbe_GBRV/te_pbe_v1.uspp.F.UPF
     MD5 check sum: 749656373d74338a59c146dbd702c29e
     Pseudo is Ultrasoft + core correction, Zval =  6.0
     Generated by new atomic code, or converted to UPF format
     Using radial grid of  891 points,  5 beta functions with: 
                l(1) =   0
                l(2) =   0
                l(3) =   1
                l(4) =   1
                l(5) =   2
     Q(r) pseudized with  6 coefficients,  rinner =    1.800   1.800   1.800
                                                       1.800   1.800

     atomic species   valence    mass     pseudopotential
        Pb            14.00   207.20000     Pb( 1.00)
        Te             6.00   127.60000     Te( 1.00)

     48 Sym. Ops., with inversion, found



   Cartesian axes

     site n.     atom                  positions (alat units)
         1           Pb  tau(   1) = (   0.0000000   0.0000000   0.0000000  )
         2           Te  tau(   2) = (   0.5000000   0.5000000   0.5000000  )

     number of k points=    64
                       cart. coord. in units 2pi/alat
        k(    1) = (   0.0000000   0.0000000   0.0000000), wk =   0.0092593
        k(    2) = (  -0.5000000  -0.5000000   0.5000000), wk =   0.0000000
        k(    3) = (   0.1666667   0.1666667  -0.1666667), wk =   0.0185185
        k(    4) = (  -0.3333333  -0.3333333   0.3333333), wk =   0.0000000
        k(    5) = (   0.3333333   0.3333333  -0.3333333), wk =   0.0185185
        k(    6) = (  -0.1666667  -0.1666667   0.1666667), wk =   0.0000000
        k(    7) = (  -0.5000000  -0.5000000   0.5000000), wk =   0.0092593
        k(    8) = (  -1.0000000  -1.0000000   1.0000000), wk =   0.0000000
        k(    9) = (   0.3333333   0.0000000   0.0000000), wk =   0.0555556
        k(   10) = (  -0.1666667  -0.5000000   0.5000000), wk =   0.0000000
        k(   11) = (   0.5000000   0.1666667  -0.1666667), wk =   0.0555556
        k(   12) = (   0.0000000  -0.3333333   0.3333333), wk =   0.0000000
        k(   13) = (  -0.3333333  -0.6666667   0.6666667), wk =   0.0555556
        k(   14) = (  -0.8333333  -1.1666667   1.1666667), wk =   0.0000000
        k(   15) = (  -0.1666667  -0.5000000   0.5000000), wk =   0.0555556
        k(   16) = (  -0.6666667  -1.0000000   1.0000000), wk =   0.0000000
        k(   17) = (   0.0000000  -0.3333333   0.3333333), wk =   0.0555556
        k(   18) = (  -0.5000000  -0.8333333   0.8333333), wk =   0.0000000
        k(   19) = (   0.6666667   0.0000000   0.0000000), wk =   0.0555556
        k(   20) = (   0.1666667  -0.5000000   0.5000000), wk =   0.0000000
        k(   21) = (  -0.1666667  -0.8333333   0.8333333), wk =   0.0555556
        k(   22) = (  -0.6666667  -1.3333333   1.3333333), wk =   0.0000000
        k(   23) = (   0.0000000  -0.6666667   0.6666667), wk =   0.0555556
        k(   24) = (  -0.5000000  -1.1666667   1.1666667), wk =   0.0000000
        k(   25) = (  -1.0000000   0.0000000   0.0000000), wk =   0.0277778
        k(   26) = (  -1.5000000  -0.5000000   0.5000000), wk =   0.0000000
        k(   27) = (  -0.3333333  -0.6666667   1.0000000), wk =   0.1111111
        k(   28) = (  -0.8333333  -1.1666667   1.5000000), wk =   0.0000000
        k(   29) = (  -0.1666667  -0.5000000   0.8333333), wk =   0.0555556
        k(   30) = (  -0.6666667  -1.0000000   1.3333333), wk =   0.0000000
        k(   31) = (  -1.0000000   0.3333333   0.0000000), wk =   0.1111111
        k(   32) = (  -1.5000000  -0.1666667   0.5000000), wk =   0.0000000
        k(   33) = (   0.1666667  -0.1666667  -0.1666667), wk =   0.0555556
        k(   34) = (  -0.3333333  -0.6666667   0.3333333), wk =   0.0000000
        k(   35) = (   0.3333333  -0.3333333  -0.3333333), wk =   0.0555556
        k(   36) = (  -0.1666667  -0.8333333   0.1666667), wk =   0.0000000
        k(   37) = (  -0.5000000   0.5000000   0.5000000), wk =   0.0277778
        k(   38) = (  -1.0000000   0.0000000   1.0000000), wk =   0.0000000
        k(   39) = (   0.5000000  -0.1666667  -0.1666667), wk =   0.1111111
        k(   40) = (   0.0000000  -0.6666667   0.3333333), wk =   0.0000000
        k(   41) = (  -0.1666667  -0.1666667  -0.5000000), wk =   0.0555556
        k(   42) = (  -0.6666667  -0.6666667   0.0000000), wk =   0.0000000
        k(   43) = (  -0.3333333   0.6666667   0.6666667), wk =   0.1111111
        k(   44) = (  -0.8333333   0.1666667   1.1666667), wk =   0.0000000
        k(   45) = (   0.6666667   0.6666667   0.3333333), wk =   0.0555556
        k(   46) = (   0.1666667   0.1666667   0.8333333), wk =   0.0000000
        k(   47) = (  -0.1666667   0.5000000   0.5000000), wk =   0.1111111
        k(   48) = (  -0.6666667   0.0000000   1.0000000), wk =   0.0000000
        k(   49) = (   0.5000000   0.5000000   0.1666667), wk =   0.0555556
        k(   50) = (   0.0000000   0.0000000   0.6666667), wk =   0.0000000
        k(   51) = (   0.0000000   0.3333333   0.3333333), wk =   0.0555556
        k(   52) = (  -0.5000000  -0.1666667   0.8333333), wk =   0.0000000
        k(   53) = (  -0.1666667   0.8333333   0.8333333), wk =   0.1111111
        k(   54) = (  -0.6666667   0.3333333   1.3333333), wk =   0.0000000
        k(   55) = (   0.8333333   0.8333333   0.1666667), wk =   0.0555556
        k(   56) = (   0.3333333   0.3333333   0.6666667), wk =   0.0000000
        k(   57) = (   0.0000000   0.6666667   0.6666667), wk =   0.0555556
        k(   58) = (  -0.5000000   0.1666667   1.1666667), wk =   0.0000000
        k(   59) = (  -0.3333333   0.6666667   1.0000000), wk =   0.1111111
        k(   60) = (  -0.8333333   0.1666667   1.5000000), wk =   0.0000000
        k(   61) = (  -0.1666667   0.5000000   0.8333333), wk =   0.0555556
        k(   62) = (  -0.6666667   0.0000000   1.3333333), wk =   0.0000000
        k(   63) = (   0.1666667  -0.8333333  -0.5000000), wk =   0.1111111
        k(   64) = (  -0.3333333  -1.3333333   0.0000000), wk =   0.0000000

     Dense  grid:   108427 G-vectors     FFT dimensions: (  72,  72,  72)

     Smooth grid:    27317 G-vectors     FFT dimensions: (  45,  45,  45)

     Largest allocated arrays     est. size (Mb)     dimensions
        Kohn-Sham Wavefunctions         0.05 Mb     (    301,   10)
        NL pseudopotentials             0.14 Mb     (    301,   31)
        Each V/rho on FFT grid          0.47 Mb     (  31104)
        Each G-vector array             0.07 Mb     (   9036)
        G-vector shells                 0.01 Mb     (    722)
     Largest temporary arrays     est. size (Mb)     dimensions
        Auxiliary wavefunctions         0.18 Mb     (    301,   40)
        Each subspace H/S matrix        0.02 Mb     (  40,  40)
        Each <psi_i|beta_j> matrix      0.00 Mb     (     31,   10)

     The potential is recalculated from file :
     ./_ph0/PbTe.save/charge-density.dat


     negative rho (up, down):  0.157E-01 0.000E+00
     Starting wfc are   13 atomic wfcs

     total cpu time spent up to now is       23.8 secs

     per-process dynamical memory:    71.5 Mb

     Band Structure Calculation
     Davidson diagonalization with overlap

     ethr =  5.00E-11,  avg # of iterations = 29.4

     total cpu time spent up to now is       29.8 secs

     End of band structure calculation

          k = 0.0000 0.0000 0.0000 (  3479 PWs)   bands (ev):

    -8.7748  -8.7748  -8.7601  -8.7601  -8.7601  -4.4307   2.4515   6.4534
     6.4534   6.4534

          k =-0.5000-0.5000 0.5000 (  3426 PWs)   bands (ev):

    -8.7915  -8.7915  -8.7575  -8.7386  -8.7386  -2.8672  -0.8901   6.9419
     6.9419   7.9680

          k = 0.1667 0.1667-0.1667 (  3443 PWs)   bands (ev):

    -8.7784  -8.7784  -8.7593  -8.7553  -8.7553  -4.1785   1.6182   6.5255
     6.5255   6.9071

          k =-0.3333-0.3333 0.3333 (  3428 PWs)   bands (ev):

    -8.7870  -8.7870  -8.7580  -8.7443  -8.7443  -3.4829   0.0707   6.7503
     6.7503   7.5309

          k = 0.3333 0.3333-0.3333 (  3428 PWs)   bands (ev):

    -8.7870  -8.7870  -8.7580  -8.7443  -8.7443  -3.4829   0.0707   6.7503
     6.7503   7.5309

          k =-0.1667-0.1667 0.1667 (  3443 PWs)   bands (ev):

    -8.7784  -8.7784  -8.7593  -8.7553  -8.7553  -4.1785   1.6182   6.5255
     6.5255   6.9071

          k =-0.5000-0.5000 0.5000 (  3426 PWs)   bands (ev):

    -8.7915  -8.7915  -8.7575  -8.7386  -8.7386  -2.8672  -0.8901   6.9419
     6.9419   7.9680

          k =-1.0000-1.0000 1.0000 (  3479 PWs)   bands (ev):

    -8.7748  -8.7748  -8.7601  -8.7601  -8.7601  -4.4307   2.4515   6.4534
     6.4534   6.4534

          k = 0.3333 0.0000 0.0000 (  3455 PWs)   bands (ev):

    -8.7882  -8.7713  -8.7632  -8.7525  -8.7525  -4.0942   1.5862   5.9868
     5.9868   7.5486

          k =-0.1667-0.5000 0.5000 (  3439 PWs)   bands (ev):

    -8.7965  -8.7878  -8.7541  -8.7430  -8.7421  -3.0285  -0.3397   5.0284
     6.7686   7.3176

          k = 0.5000 0.1667-0.1667 (  3440 PWs)   bands (ev):

    -8.8016  -8.7746  -8.7623  -8.7457  -8.7424  -3.5469   0.5703   5.8102
     5.8969   6.6080

          k = 0.0000-0.3333 0.3333 (  3433 PWs)   bands (ev):

    -8.7852  -8.7829  -8.7581  -8.7516  -8.7470  -3.7746   0.7989   5.4620
     7.0490   7.7315

          k =-0.3333-0.6667 0.6667 (  3415 PWs)   bands (ev):

    -8.8056  -8.7833  -8.7561  -8.7427  -8.7367  -2.8177  -0.5786   5.3919
     6.1082   6.5421

          k =-0.8333-1.1667 1.1667 (  3443 PWs)   bands (ev):

    -8.7784  -8.7784  -8.7593  -8.7553  -8.7553  -4.1785   1.6182   6.5255
     6.5255   6.9071

          k =-0.1667-0.5000 0.5000 (  3439 PWs)   bands (ev):

    -8.7965  -8.7878  -8.7541  -8.7430  -8.7421  -3.0285  -0.3397   5.0284
     6.7686   7.3176

          k =-0.6667-1.0000 1.0000 (  3455 PWs)   bands (ev):

    -8.7882  -8.7713  -8.7632  -8.7525  -8.7525  -4.0942   1.5862   5.9868
     5.9868   7.5486

          k = 0.0000-0.3333 0.3333 (  3433 PWs)   bands (ev):

    -8.7852  -8.7829  -8.7581  -8.7516  -8.7470  -3.7746   0.7989   5.4620
     7.0490   7.7315

          k =-0.5000-0.8333 0.8333 (  3440 PWs)   bands (ev):

    -8.8016  -8.7746  -8.7623  -8.7457  -8.7424  -3.5469   0.5703   5.8102
     5.8969   6.6080

          k = 0.6667 0.0000 0.0000 (  3423 PWs)   bands (ev):

    -8.8277  -8.7694  -8.7645  -8.7366  -8.7366  -3.2055   0.7005   4.7984
     5.2227   5.2227

          k = 0.1667-0.5000 0.5000 (  3439 PWs)   bands (ev):

    -8.7965  -8.7878  -8.7541  -8.7430  -8.7421  -3.0285  -0.3397   5.0284
     6.7686   7.3176

          k =-0.1667-0.8333 0.8333 (  3419 PWs)   bands (ev):

    -8.8367  -8.7679  -8.7665  -8.7343  -8.7317  -2.6710   0.1239   3.7449
     5.2175   5.3742

          k =-0.6667-1.3333 1.3333 (  3428 PWs)   bands (ev):

    -8.7870  -8.7870  -8.7580  -8.7443  -8.7443  -3.4829   0.0707   6.7503
     6.7503   7.5309

          k = 0.0000-0.6667 0.6667 (  3444 PWs)   bands (ev):

    -8.8207  -8.7784  -8.7547  -8.7423  -8.7357  -2.5251  -0.4256   3.7849
     5.8067   6.1448

          k =-0.5000-1.1667 1.1667 (  3440 PWs)   bands (ev):

    -8.8016  -8.7746  -8.7623  -8.7457  -8.7424  -3.5469   0.5703   5.8102
     5.8969   6.6080

          k =-1.0000 0.0000 0.0000 (  3378 PWs)   bands (ev):

    -8.8529  -8.7725  -8.7610  -8.7282  -8.7282  -2.5720   0.5555   3.0821
     4.8971   4.8971

          k =-1.5000-0.5000 0.5000 (  3426 PWs)   bands (ev):

    -8.7915  -8.7915  -8.7575  -8.7386  -8.7386  -2.8672  -0.8901   6.9419
     6.9419   7.9680

          k =-0.3333-0.6667 1.0000 (  3423 PWs)   bands (ev):

    -8.8156  -8.7762  -8.7600  -8.7413  -8.7369  -2.9605   0.0011   4.6459
     5.1048   6.8637

          k =-0.8333-1.1667 1.5000 (  3440 PWs)   bands (ev):

    -8.8016  -8.7746  -8.7623  -8.7457  -8.7424  -3.5469   0.5703   5.8102
     5.8969   6.6080

          k =-0.1667-0.5000 0.8333 (  3418 PWs)   bands (ev):

    -8.8201  -8.7794  -8.7515  -8.7484  -8.7324  -2.5239  -0.4334   4.3376
     4.4604   7.4747

          k =-0.6667-1.0000 1.3333 (  3433 PWs)   bands (ev):

    -8.7852  -8.7829  -8.7581  -8.7516  -8.7470  -3.7746   0.7989   5.4620
     7.0490   7.7315

          k =-1.0000 0.3333 0.0000 (  3406 PWs)   bands (ev):

    -8.8368  -8.7712  -8.7619  -8.7398  -8.7282  -2.4445  -0.0499   3.4352
     4.3078   6.5593

          k =-1.5000-0.1667 0.5000 (  3439 PWs)   bands (ev):

    -8.7965  -8.7878  -8.7541  -8.7430  -8.7421  -3.0285  -0.3397   5.0284
     6.7686   7.3176

          k = 0.1667-0.1667-0.1667 (  3443 PWs)   bands (ev):

    -8.7784  -8.7784  -8.7593  -8.7553  -8.7553  -4.1785   1.6182   6.5255
     6.5255   6.9071

          k =-0.3333-0.6667 0.3333 (  3415 PWs)   bands (ev):

    -8.8056  -8.7833  -8.7561  -8.7427  -8.7367  -2.8177  -0.5786   5.3919
     6.1082   6.5421

          k = 0.3333-0.3333-0.3333 (  3428 PWs)   bands (ev):

    -8.7870  -8.7870  -8.7580  -8.7443  -8.7443  -3.4829   0.0707   6.7503
     6.7503   7.5309

          k =-0.1667-0.8333 0.1667 (  3419 PWs)   bands (ev):

    -8.8367  -8.7679  -8.7665  -8.7343  -8.7317  -2.6710   0.1239   3.7449
     5.2175   5.3742

          k =-0.5000 0.5000 0.5000 (  3426 PWs)   bands (ev):

    -8.7915  -8.7915  -8.7575  -8.7386  -8.7386  -2.8672  -0.8901   6.9419
     6.9419   7.9680

          k =-1.0000 0.0000 1.0000 (  3378 PWs)   bands (ev):

    -8.8529  -8.7725  -8.7610  -8.7282  -8.7282  -2.5720   0.5555   3.0821
     4.8971   4.8971

          k = 0.5000-0.1667-0.1667 (  3440 PWs)   bands (ev):

    -8.8016  -8.7746  -8.7623  -8.7457  -8.7424  -3.5469   0.5703   5.8102
     5.8969   6.6080

          k = 0.0000-0.6667 0.3333 (  3423 PWs)   bands (ev):

    -8.8156  -8.7762  -8.7600  -8.7413  -8.7369  -2.9605   0.0011   4.6459
     5.1048   6.8637

          k =-0.1667-0.1667-0.5000 (  3440 PWs)   bands (ev):

    -8.8016  -8.7746  -8.7623  -8.7457  -8.7424  -3.5469   0.5703   5.8102
     5.8969   6.6080

          k =-0.6667-0.6667 0.0000 (  3444 PWs)   bands (ev):

    -8.8207  -8.7784  -8.7547  -8.7423  -8.7357  -2.5251  -0.4256   3.7849
     5.8067   6.1448

          k =-0.3333 0.6667 0.6667 (  3415 PWs)   bands (ev):

    -8.8056  -8.7833  -8.7561  -8.7427  -8.7367  -2.8177  -0.5786   5.3919
     6.1082   6.5421

          k =-0.8333 0.1667 1.1667 (  3419 PWs)   bands (ev):

    -8.8367  -8.7679  -8.7665  -8.7343  -8.7317  -2.6710   0.1239   3.7449
     5.2175   5.3742

          k = 0.6667 0.6667 0.3333 (  3415 PWs)   bands (ev):

    -8.8056  -8.7833  -8.7561  -8.7427  -8.7367  -2.8177  -0.5786   5.3919
     6.1082   6.5421

          k = 0.1667 0.1667 0.8333 (  3419 PWs)   bands (ev):

    -8.8367  -8.7679  -8.7665  -8.7343  -8.7317  -2.6710   0.1239   3.7449
     5.2175   5.3742

          k =-0.1667 0.5000 0.5000 (  3439 PWs)   bands (ev):

    -8.7965  -8.7878  -8.7541  -8.7430  -8.7421  -3.0285  -0.3397   5.0284
     6.7686   7.3176

          k =-0.6667 0.0000 1.0000 (  3406 PWs)   bands (ev):

    -8.8368  -8.7712  -8.7619  -8.7398  -8.7282  -2.4445  -0.0499   3.4352
     4.3078   6.5593

          k = 0.5000 0.5000 0.1667 (  3439 PWs)   bands (ev):

    -8.7965  -8.7878  -8.7541  -8.7430  -8.7421  -3.0285  -0.3397   5.0284
     6.7686   7.3176

          k = 0.0000 0.0000 0.6667 (  3423 PWs)   bands (ev):

    -8.8277  -8.7694  -8.7645  -8.7366  -8.7366  -3.2055   0.7005   4.7984
     5.2227   5.2227

          k = 0.0000 0.3333 0.3333 (  3433 PWs)   bands (ev):

    -8.7852  -8.7829  -8.7581  -8.7516  -8.7470  -3.7746   0.7989   5.4620
     7.0490   7.7315

          k =-0.5000-0.1667 0.8333 (  3418 PWs)   bands (ev):

    -8.8201  -8.7794  -8.7515  -8.7484  -8.7324  -2.5239  -0.4334   4.3376
     4.4604   7.4747

          k =-0.1667 0.8333 0.8333 (  3419 PWs)   bands (ev):

    -8.8367  -8.7679  -8.7665  -8.7343  -8.7317  -2.6710   0.1239   3.7449
     5.2175   5.3742

          k =-0.6667 0.3333 1.3333 (  3415 PWs)   bands (ev):

    -8.8056  -8.7833  -8.7561  -8.7427  -8.7367  -2.8177  -0.5786   5.3919
     6.1082   6.5421

          k = 0.8333 0.8333 0.1667 (  3419 PWs)   bands (ev):

    -8.8367  -8.7679  -8.7665  -8.7343  -8.7317  -2.6710   0.1239   3.7449
     5.2175   5.3742

          k = 0.3333 0.3333 0.6667 (  3415 PWs)   bands (ev):

    -8.8056  -8.7833  -8.7561  -8.7427  -8.7367  -2.8177  -0.5786   5.3919
     6.1082   6.5421

          k = 0.0000 0.6667 0.6667 (  3444 PWs)   bands (ev):

    -8.8207  -8.7784  -8.7547  -8.7423  -8.7357  -2.5251  -0.4256   3.7849
     5.8067   6.1448

          k =-0.5000 0.1667 1.1667 (  3418 PWs)   bands (ev):

    -8.8201  -8.7794  -8.7515  -8.7484  -8.7324  -2.5239  -0.4334   4.3376
     4.4604   7.4747

          k =-0.3333 0.6667 1.0000 (  3423 PWs)   bands (ev):

    -8.8156  -8.7762  -8.7600  -8.7413  -8.7369  -2.9605   0.0011   4.6459
     5.1048   6.8637

          k =-0.8333 0.1667 1.5000 (  3418 PWs)   bands (ev):

    -8.8201  -8.7794  -8.7515  -8.7484  -8.7324  -2.5239  -0.4334   4.3376
     4.4604   7.4747

          k =-0.1667 0.5000 0.8333 (  3418 PWs)   bands (ev):

    -8.8201  -8.7794  -8.7515  -8.7484  -8.7324  -2.5239  -0.4334   4.3376
     4.4604   7.4747

          k =-0.6667 0.0000 1.3333 (  3444 PWs)   bands (ev):

    -8.8207  -8.7784  -8.7547  -8.7423  -8.7357  -2.5251  -0.4256   3.7849
     5.8067   6.1448

          k = 0.1667-0.8333-0.5000 (  3418 PWs)   bands (ev):

    -8.8201  -8.7794  -8.7515  -8.7484  -8.7324  -2.5239  -0.4334   4.3376
     4.4604   7.4747

          k =-0.3333-1.3333 0.0000 (  3423 PWs)   bands (ev):

    -8.8156  -8.7762  -8.7600  -8.7413  -8.7369  -2.9605   0.0011   4.6459
     5.1048   6.8637

     Writing output data file PbTe.save

                                                                                

     bravais-lattice index     =            0
     lattice parameter (alat)  =      12.0459  a.u.
     unit-cell volume          =     436.9747 (a.u.)^3
     number of atoms/cell      =            2
     number of atomic types    =            2
     kinetic-energy cut-off    =      60.0000  Ry
     charge density cut-off    =     600.0000  Ry
     convergence threshold     =      1.0E-16
     beta                      =       0.7000
     number of iterations used =            4
     Exchange-correlation      = PBESOL ( 1 410 8 0)
     EXX-fraction              =        0.00


     celldm(1)=   12.04589  celldm(2)=    0.00000  celldm(3)=    0.00000
     celldm(4)=    0.00000  celldm(5)=    0.00000  celldm(6)=    0.00000

     crystal axes: (cart. coord. in units of alat)
               a(1) = (  0.0000  0.5000  0.5000 )  
               a(2) = (  0.5000  0.0000  0.5000 )  
               a(3) = (  0.5000  0.5000  0.0000 )  

     reciprocal axes: (cart. coord. in units 2 pi/alat)
               b(1) = ( -1.0000  1.0000  1.0000 )  
               b(2) = (  1.0000 -1.0000  1.0000 )  
               b(3) = (  1.0000  1.0000 -1.0000 )  


     Atoms inside the unit cell: 

   Cartesian axes

     site n.  atom      mass           positions (alat units)
        1        Pb 207.2000   tau( 1) = (    0.00000    0.00000    0.00000  )
        2        Te 127.6000   tau( 2) = (    0.50000    0.50000    0.50000  )

     Computing dynamical matrix for 
                    q = (  -0.5000000  -0.5000000   0.5000000 )
 
     13 Sym.Ops. (with q -> -q+G )


     G cutoff = 2205.3068  (   9036 G-vectors)     FFT grid: ( 72, 72, 72)
     G cutoff =  882.1227  (   2276 G-vectors)  smooth grid: ( 45, 45, 45)
     number of k points=    64

     PseudoPot. # 1 for Pb read from file:
     /work/02599/asmiller/pseudo/gbrv/pbe_GBRV/pb_pbe_v1.uspp.F.UPF
     MD5 check sum: a5f44a0c8587cfbb5a05efeead6b9227
     Pseudo is Ultrasoft + core correction, Zval = 14.0
     Generated by new atomic code, or converted to UPF format
     Using radial grid of  899 points,  6 beta functions with: 
                l(1) =   0
                l(2) =   0
                l(3) =   1
                l(4) =   1
                l(5) =   2
                l(6) =   2
     Q(r) pseudized with  6 coefficients,  rinner =    1.000   1.000   1.000
                                                       1.000   1.000

     PseudoPot. # 2 for Te read from file:
     /work/02599/asmiller/pseudo/gbrv/pbe_GBRV/te_pbe_v1.uspp.F.UPF
     MD5 check sum: 749656373d74338a59c146dbd702c29e
     Pseudo is Ultrasoft + core correction, Zval =  6.0
     Generated by new atomic code, or converted to UPF format
     Using radial grid of  891 points,  5 beta functions with: 
                l(1) =   0
                l(2) =   0
                l(3) =   1
                l(4) =   1
                l(5) =   2
     Q(r) pseudized with  6 coefficients,  rinner =    1.800   1.800   1.800
                                                       1.800   1.800


     Atomic displacements:
     There are   4 irreducible representations

     Representation     1      1 modes -A_1g L_1 To be done

     Representation     2      2 modes -E_g  L_3 To be done

     Representation     3      1 modes -A_2u L_2' To be done

     Representation     4      2 modes -E_u  L_3' To be done



     Alpha used in Ewald sum =   2.8000

     negative rho (up, down):  0.157E-01 0.000E+00
     PHONON       :  9m37.56s CPU    10m10.75s WALL



     Representation #  1 mode #   1

     Self-consistent Calculation

      iter #   1 total cpu time :   612.1 secs   av.it.:   4.7
      thresh= 0.100E-01 alpha_mix =  0.700 |ddv_scf|^2 =  0.850E-05

      iter #   2 total cpu time :   614.5 secs   av.it.:  13.6
      thresh= 0.291E-03 alpha_mix =  0.700 |ddv_scf|^2 =  0.412E-04

      iter #   3 total cpu time :   616.6 secs   av.it.:  11.6
      thresh= 0.642E-03 alpha_mix =  0.700 |ddv_scf|^2 =  0.179E-08

      iter #   4 total cpu time :   619.2 secs   av.it.:  15.4
      thresh= 0.423E-05 alpha_mix =  0.700 |ddv_scf|^2 =  0.184E-09

      iter #   5 total cpu time :   621.6 secs   av.it.:  14.4
      thresh= 0.136E-05 alpha_mix =  0.700 |ddv_scf|^2 =  0.614E-11

      iter #   6 total cpu time :   624.1 secs   av.it.:  14.0
      thresh= 0.248E-06 alpha_mix =  0.700 |ddv_scf|^2 =  0.102E-12

      iter #   7 total cpu time :   626.6 secs   av.it.:  14.6
      thresh= 0.319E-07 alpha_mix =  0.700 |ddv_scf|^2 =  0.488E-15

      iter #   8 total cpu time :   629.1 secs   av.it.:  15.2
      thresh= 0.221E-08 alpha_mix =  0.700 |ddv_scf|^2 =  0.593E-17

     End of self-consistent calculation

     Convergence has been achieved 


     Representation #  2 modes #   2  3

     Self-consistent Calculation

      iter #   1 total cpu time :   631.7 secs   av.it.:   4.1
      thresh= 0.100E-01 alpha_mix =  0.700 |ddv_scf|^2 =  0.197E-07

      iter #   2 total cpu time :   636.9 secs   av.it.:  15.8
      thresh= 0.140E-04 alpha_mix =  0.700 |ddv_scf|^2 =  0.177E-08

      iter #   3 total cpu time :   642.1 secs   av.it.:  16.3
      thresh= 0.421E-05 alpha_mix =  0.700 |ddv_scf|^2 =  0.507E-10

      iter #   4 total cpu time :   647.3 secs   av.it.:  16.2
      thresh= 0.712E-06 alpha_mix =  0.700 |ddv_scf|^2 =  0.275E-12

      iter #   5 total cpu time :   652.7 secs   av.it.:  17.0
      thresh= 0.525E-07 alpha_mix =  0.700 |ddv_scf|^2 =  0.324E-14

      iter #   6 total cpu time :   658.1 secs   av.it.:  16.9
      thresh= 0.569E-08 alpha_mix =  0.700 |ddv_scf|^2 =  0.147E-16

     End of self-consistent calculation

     Convergence has been achieved 


     Representation #  3 mode #   4

     Self-consistent Calculation

      iter #   1 total cpu time :   660.2 secs   av.it.:   9.7
      thresh= 0.100E-01 alpha_mix =  0.700 |ddv_scf|^2 =  0.645E-04

      iter #   2 total cpu time :   662.7 secs   av.it.:  14.8
      thresh= 0.803E-03 alpha_mix =  0.700 |ddv_scf|^2 =  0.317E-03

      iter #   3 total cpu time :   665.0 secs   av.it.:  12.8
      thresh= 0.178E-02 alpha_mix =  0.700 |ddv_scf|^2 =  0.155E-06

      iter #   4 total cpu time :   667.5 secs   av.it.:  15.0
      thresh= 0.394E-04 alpha_mix =  0.700 |ddv_scf|^2 =  0.588E-08

      iter #   5 total cpu time :   669.9 secs   av.it.:  14.2
      thresh= 0.767E-05 alpha_mix =  0.700 |ddv_scf|^2 =  0.789E-10

      iter #   6 total cpu time :   672.4 secs   av.it.:  15.0
      thresh= 0.888E-06 alpha_mix =  0.700 |ddv_scf|^2 =  0.794E-12

      iter #   7 total cpu time :   674.9 secs   av.it.:  14.5
      thresh= 0.891E-07 alpha_mix =  0.700 |ddv_scf|^2 =  0.299E-13

      iter #   8 total cpu time :   677.3 secs   av.it.:  14.0
      thresh= 0.173E-07 alpha_mix =  0.700 |ddv_scf|^2 =  0.287E-15

      iter #   9 total cpu time :   679.8 secs   av.it.:  14.9
      thresh= 0.169E-08 alpha_mix =  0.700 |ddv_scf|^2 =  0.629E-17

     End of self-consistent calculation

     Convergence has been achieved 


     Representation #  4 modes #   5  6

     Self-consistent Calculation

      iter #   1 total cpu time :   683.3 secs   av.it.:   8.6
      thresh= 0.100E-01 alpha_mix =  0.700 |ddv_scf|^2 =  0.929E-06

      iter #   2 total cpu time :   688.7 secs   av.it.:  16.9
      thresh= 0.964E-04 alpha_mix =  0.700 |ddv_scf|^2 =  0.337E-06

      iter #   3 total cpu time :   694.0 secs   av.it.:  16.4
      thresh= 0.581E-04 alpha_mix =  0.700 |ddv_scf|^2 =  0.143E-09

      iter #   4 total cpu time :   699.4 secs   av.it.:  17.1
      thresh= 0.119E-05 alpha_mix =  0.700 |ddv_scf|^2 =  0.390E-11

      iter #   5 total cpu time :   704.6 secs   av.it.:  16.2
      thresh= 0.198E-06 alpha_mix =  0.700 |ddv_scf|^2 =  0.241E-13

      iter #   6 total cpu time :   710.0 secs   av.it.:  16.7
      thresh= 0.155E-07 alpha_mix =  0.700 |ddv_scf|^2 =  0.471E-15

      iter #   7 total cpu time :   715.2 secs   av.it.:  16.3
      thresh= 0.217E-08 alpha_mix =  0.700 |ddv_scf|^2 =  0.290E-17

     End of self-consistent calculation

     Convergence has been achieved 
 
     Number of q in the star =    4
     List of q in the star:
          1  -0.500000000  -0.500000000   0.500000000
          2  -0.500000000   0.500000000   0.500000000
          3  -0.500000000  -0.500000000  -0.500000000
          4  -0.500000000   0.500000000  -0.500000000

     Diagonalizing the dynamical matrix

     q = (   -0.500000000  -0.500000000   0.500000000 ) 

 **************************************************************************
     omega( 1) =       1.862065 [THz] =      62.111793 [cm-1]
     omega( 2) =       1.862065 [THz] =      62.111793 [cm-1]
     omega( 3) =       2.827504 [THz] =      94.315396 [cm-1]
     omega( 4) =       3.076859 [THz] =     102.632954 [cm-1]
     omega( 5) =       3.076859 [THz] =     102.632954 [cm-1]
     omega( 6) =       3.320963 [THz] =     110.775401 [cm-1]
 **************************************************************************

     Mode symmetry, D_3d (-3m)  point group:

     omega(  1 -  2) =         62.1  [cm-1]   --> E_u  L_3'          
     omega(  3 -  3) =         94.3  [cm-1]   --> A_2u L_2'          
     omega(  4 -  5) =        102.6  [cm-1]   --> E_g  L_3           
     omega(  6 -  6) =        110.8  [cm-1]   --> A_1g L_1           

 **************************************************************************

     Calculation of q =    0.3333333   0.0000000   0.0000000
 
     Parallelization info
     --------------------
     sticks:   dense  smooth     PW     G-vecs:    dense   smooth      PW
     Min         250      99     29                 9035     2272     365
     Max         251     100     31                 9039     2283     366
     Sum        3001    1189    361               108427    27317    4381
 


     bravais-lattice index     =            0
     lattice parameter (alat)  =      12.0459  a.u.
     unit-cell volume          =     436.9747 (a.u.)^3
     number of atoms/cell      =            2
     number of atomic types    =            2
     number of electrons       =        20.00
     number of Kohn-Sham states=           10
     kinetic-energy cutoff     =      60.0000  Ry
     charge density cutoff     =     600.0000  Ry
     Exchange-correlation      = PBESOL ( 1 410 8 0)
     EXX-fraction              =        0.00

     celldm(1)=  12.045886  celldm(2)=   0.000000  celldm(3)=   0.000000
     celldm(4)=   0.000000  celldm(5)=   0.000000  celldm(6)=   0.000000

     crystal axes: (cart. coord. in units of alat)
               a(1) = (   0.000000   0.500000   0.500000 )  
               a(2) = (   0.500000   0.000000   0.500000 )  
               a(3) = (   0.500000   0.500000   0.000000 )  

     reciprocal axes: (cart. coord. in units 2 pi/alat)
               b(1) = ( -1.000000  1.000000  1.000000 )  
               b(2) = (  1.000000 -1.000000  1.000000 )  
               b(3) = (  1.000000  1.000000 -1.000000 )  


     PseudoPot. # 1 for Pb read from file:
     /work/02599/asmiller/pseudo/gbrv/pbe_GBRV/pb_pbe_v1.uspp.F.UPF
     MD5 check sum: a5f44a0c8587cfbb5a05efeead6b9227
     Pseudo is Ultrasoft + core correction, Zval = 14.0
     Generated by new atomic code, or converted to UPF format
     Using radial grid of  899 points,  6 beta functions with: 
                l(1) =   0
                l(2) =   0
                l(3) =   1
                l(4) =   1
                l(5) =   2
                l(6) =   2
     Q(r) pseudized with  6 coefficients,  rinner =    1.000   1.000   1.000
                                                       1.000   1.000

     PseudoPot. # 2 for Te read from file:
     /work/02599/asmiller/pseudo/gbrv/pbe_GBRV/te_pbe_v1.uspp.F.UPF
     MD5 check sum: 749656373d74338a59c146dbd702c29e
     Pseudo is Ultrasoft + core correction, Zval =  6.0
     Generated by new atomic code, or converted to UPF format
     Using radial grid of  891 points,  5 beta functions with: 
                l(1) =   0
                l(2) =   0
                l(3) =   1
                l(4) =   1
                l(5) =   2
     Q(r) pseudized with  6 coefficients,  rinner =    1.800   1.800   1.800
                                                       1.800   1.800

     atomic species   valence    mass     pseudopotential
        Pb            14.00   207.20000     Pb( 1.00)
        Te             6.00   127.60000     Te( 1.00)

     48 Sym. Ops., with inversion, found



   Cartesian axes

     site n.     atom                  positions (alat units)
         1           Pb  tau(   1) = (   0.0000000   0.0000000   0.0000000  )
         2           Te  tau(   2) = (   0.5000000   0.5000000   0.5000000  )

     number of k points=    96
                       cart. coord. in units 2pi/alat
        k(    1) = (   0.0000000   0.0000000   0.0000000), wk =   0.0092593
        k(    2) = (   0.3333333   0.0000000   0.0000000), wk =   0.0000000
        k(    3) = (   0.1666667   0.1666667  -0.1666667), wk =   0.0370370
        k(    4) = (   0.5000000   0.1666667  -0.1666667), wk =   0.0000000
        k(    5) = (   0.3333333   0.3333333  -0.3333333), wk =   0.0370370
        k(    6) = (   0.6666667   0.3333333  -0.3333333), wk =   0.0000000
        k(    7) = (  -0.5000000  -0.5000000   0.5000000), wk =   0.0370370
        k(    8) = (  -0.1666667  -0.5000000   0.5000000), wk =   0.0000000
        k(    9) = (   0.3333333   0.0000000   0.0000000), wk =   0.0092593
        k(   10) = (   0.6666667   0.0000000   0.0000000), wk =   0.0000000
        k(   11) = (   0.5000000   0.1666667  -0.1666667), wk =   0.0370370
        k(   12) = (   0.8333333   0.1666667  -0.1666667), wk =   0.0000000
        k(   13) = (  -0.3333333  -0.6666667   0.6666667), wk =   0.0370370
        k(   14) = (   0.0000000  -0.6666667   0.6666667), wk =   0.0000000
        k(   15) = (  -0.1666667  -0.5000000   0.5000000), wk =   0.0370370
        k(   16) = (   0.1666667  -0.5000000   0.5000000), wk =   0.0000000
        k(   17) = (   0.0000000  -0.3333333   0.3333333), wk =   0.0370370
        k(   18) = (   0.3333333  -0.3333333   0.3333333), wk =   0.0000000
        k(   19) = (   0.6666667   0.0000000   0.0000000), wk =   0.0092593
        k(   20) = (   1.0000000   0.0000000   0.0000000), wk =   0.0000000
        k(   21) = (  -0.1666667  -0.8333333   0.8333333), wk =   0.0370370
        k(   22) = (   0.1666667  -0.8333333   0.8333333), wk =   0.0000000
        k(   23) = (   0.0000000  -0.6666667   0.6666667), wk =   0.0370370
        k(   24) = (   0.3333333  -0.6666667   0.6666667), wk =   0.0000000
        k(   25) = (  -1.0000000   0.0000000   0.0000000), wk =   0.0092593
        k(   26) = (  -0.6666667   0.0000000   0.0000000), wk =   0.0000000
        k(   27) = (  -0.3333333  -0.6666667   1.0000000), wk =   0.0370370
        k(   28) = (   0.0000000  -0.6666667   1.0000000), wk =   0.0000000
        k(   29) = (  -0.1666667  -0.5000000   0.8333333), wk =   0.0740741
        k(   30) = (   0.1666667  -0.5000000   0.8333333), wk =   0.0000000
        k(   31) = (  -1.0000000   0.3333333   0.0000000), wk =   0.0370370
        k(   32) = (  -0.6666667   0.3333333   0.0000000), wk =   0.0000000
        k(   33) = (  -0.1666667  -0.1666667   0.1666667), wk =   0.0370370
        k(   34) = (   0.1666667  -0.1666667   0.1666667), wk =   0.0000000
        k(   35) = (  -0.3333333  -0.3333333   0.3333333), wk =   0.0370370
        k(   36) = (   0.0000000  -0.3333333   0.3333333), wk =   0.0000000
        k(   37) = (   0.0000000   0.0000000   0.3333333), wk =   0.0370370
        k(   38) = (   0.3333333   0.0000000   0.3333333), wk =   0.0000000
        k(   39) = (  -0.3333333   0.0000000   0.0000000), wk =   0.0092593
        k(   40) = (   0.0000000   0.0000000   0.0000000), wk =   0.0000000
        k(   41) = (  -0.1666667  -0.1666667   0.5000000), wk =   0.0740741
        k(   42) = (   0.1666667  -0.1666667   0.5000000), wk =   0.0000000
        k(   43) = (   0.1666667   0.1666667  -0.5000000), wk =   0.0740741
        k(   44) = (   0.5000000   0.1666667  -0.5000000), wk =   0.0000000
        k(   45) = (  -0.5000000   0.1666667   0.1666667), wk =   0.0370370
        k(   46) = (  -0.1666667   0.1666667   0.1666667), wk =   0.0000000
        k(   47) = (   0.6666667   0.6666667  -0.3333333), wk =   0.0740741
[...]

     The potential is recalculated from file :
     ./_ph0/PbTe.save/charge-density.dat


     negative rho (up, down):  0.157E-01 0.000E+00
     Starting wfc are   13 atomic wfcs

     total cpu time spent up to now is      235.3 secs

     per-process dynamical memory:    71.5 Mb

     Band Structure Calculation
     Davidson diagonalization with overlap

     ethr =  5.00E-11,  avg # of iterations = 29.2

     total cpu time spent up to now is      249.4 secs

     End of band structure calculation

     Number of k-points >= 100: set verbosity='high' to print the bands.

     Writing output data file PbTe.save

                                                                                

     bravais-lattice index     =            0
     lattice parameter (alat)  =      12.0459  a.u.
     unit-cell volume          =     436.9747 (a.u.)^3
     number of atoms/cell      =            2
     number of atomic types    =            2
     kinetic-energy cut-off    =      60.0000  Ry
     charge density cut-off    =     600.0000  Ry
     convergence threshold     =      1.0E-16
     beta                      =       0.7000
     number of iterations used =            4
     Exchange-correlation      = PBESOL ( 1 410 8 0)
     EXX-fraction              =        0.00


     celldm(1)=   12.04589  celldm(2)=    0.00000  celldm(3)=    0.00000
     celldm(4)=    0.00000  celldm(5)=    0.00000  celldm(6)=    0.00000

     crystal axes: (cart. coord. in units of alat)
               a(1) = (  0.0000  0.5000  0.5000 )  
               a(2) = (  0.5000  0.0000  0.5000 )  
               a(3) = (  0.5000  0.5000  0.0000 )  

     reciprocal axes: (cart. coord. in units 2 pi/alat)
               b(1) = ( -1.0000  1.0000  1.0000 )  
               b(2) = (  1.0000 -1.0000  1.0000 )  
               b(3) = (  1.0000  1.0000 -1.0000 )  


     Atoms inside the unit cell: 

   Cartesian axes

     site n.  atom      mass           positions (alat units)
        1        Pb 207.2000   tau( 1) = (    0.00000    0.00000    0.00000  )
        2        Te 127.6000   tau( 2) = (    0.50000    0.50000    0.50000  )

     Computing dynamical matrix for 
                    q = (  -1.0000000   0.3333333   0.0000000 )
 
      4 Sym.Ops. (no q -> -q+G )


     G cutoff = 2205.3068  (   9036 G-vectors)     FFT grid: ( 72, 72, 72)
     G cutoff =  882.1227  (   2276 G-vectors)  smooth grid: ( 45, 45, 45)
     number of k points=   150

     PseudoPot. # 1 for Pb read from file:
     /work/02599/asmiller/pseudo/gbrv/pbe_GBRV/pb_pbe_v1.uspp.F.UPF
     MD5 check sum: a5f44a0c8587cfbb5a05efeead6b9227
     Pseudo is Ultrasoft + core correction, Zval = 14.0
     Generated by new atomic code, or converted to UPF format
     Using radial grid of  899 points,  6 beta functions with: 
                l(1) =   0
                l(2) =   0
                l(3) =   1
                l(4) =   1
                l(5) =   2
                l(6) =   2
     Q(r) pseudized with  6 coefficients,  rinner =    1.000   1.000   1.000
                                                       1.000   1.000

     PseudoPot. # 2 for Te read from file:
     /work/02599/asmiller/pseudo/gbrv/pbe_GBRV/te_pbe_v1.uspp.F.UPF
     MD5 check sum: 749656373d74338a59c146dbd702c29e
     Pseudo is Ultrasoft + core correction, Zval =  6.0
     Generated by new atomic code, or converted to UPF format
     Using radial grid of  891 points,  5 beta functions with: 
                l(1) =   0
                l(2) =   0
                l(3) =   1
                l(4) =   1
                l(5) =   2
     Q(r) pseudized with  6 coefficients,  rinner =    1.800   1.800   1.800
                                                       1.800   1.800


     Atomic displacements:
     There are   6 irreducible representations

     Representation     1      1 modes -A_1  D_1  S_1 To be done

     Representation     2      1 modes -A_1  D_1  S_1 To be done

     Representation     3      1 modes -B_1  D_3  S_3 To be done

     Representation     4      1 modes -B_1  D_3  S_3 To be done

     Representation     5      1 modes -B_2  D_4  S_4 To be done

     Representation     6      1 modes -B_2  D_4  S_4 To be done



     Alpha used in Ewald sum =   2.8000

     negative rho (up, down):  0.157E-01 0.000E+00
     PHONON       :     1h30m CPU        1h36m WALL



     Representation #  1 mode #   1

     Self-consistent Calculation

      iter #   1 total cpu time :  5822.4 secs   av.it.:   5.0
      thresh= 0.100E-01 alpha_mix =  0.700 |ddv_scf|^2 =  0.518E-06

      iter #   2 total cpu time :  5828.0 secs   av.it.:  15.3
      thresh= 0.719E-04 alpha_mix =  0.700 |ddv_scf|^2 =  0.510E-06

      iter #   3 total cpu time :  5833.5 secs   av.it.:  14.7
      thresh= 0.714E-04 alpha_mix =  0.700 |ddv_scf|^2 =  0.103E-08

      iter #   4 total cpu time :  5839.4 secs   av.it.:  16.4
      thresh= 0.321E-05 alpha_mix =  0.700 |ddv_scf|^2 =  0.483E-09

      iter #   5 total cpu time :  5845.1 secs   av.it.:  15.5
      thresh= 0.220E-05 alpha_mix =  0.700 |ddv_scf|^2 =  0.664E-10

      iter #   6 total cpu time :  5850.7 secs   av.it.:  15.3
      thresh= 0.815E-06 alpha_mix =  0.700 |ddv_scf|^2 =  0.661E-12

      iter #   7 total cpu time :  5856.7 secs   av.it.:  16.4
      thresh= 0.813E-07 alpha_mix =  0.700 |ddv_scf|^2 =  0.632E-13

      iter #   8 total cpu time :  5862.5 secs   av.it.:  16.1
      thresh= 0.251E-07 alpha_mix =  0.700 |ddv_scf|^2 =  0.456E-14

      iter #   9 total cpu time :  5868.4 secs   av.it.:  16.1
      thresh= 0.675E-08 alpha_mix =  0.700 |ddv_scf|^2 =  0.151E-14

      iter #  10 total cpu time :  5874.0 secs   av.it.:  15.1
      thresh= 0.389E-08 alpha_mix =  0.700 |ddv_scf|^2 =  0.356E-16

     End of self-consistent calculation

     Convergence has been achieved 


     Representation #  2 mode #   2

     Self-consistent Calculation

      iter #   1 total cpu time :  5877.8 secs   av.it.:   8.6
      thresh= 0.100E-01 alpha_mix =  0.700 |ddv_scf|^2 =  0.825E-05

      iter #   2 total cpu time :  5883.6 secs   av.it.:  15.8
      thresh= 0.287E-03 alpha_mix =  0.700 |ddv_scf|^2 =  0.109E-04

      iter #   3 total cpu time :  5889.0 secs   av.it.:  14.7
      thresh= 0.331E-03 alpha_mix =  0.700 |ddv_scf|^2 =  0.143E-06

      iter #   4 total cpu time :  5894.6 secs   av.it.:  15.1
      thresh= 0.378E-04 alpha_mix =  0.700 |ddv_scf|^2 =  0.299E-08

      iter #   5 total cpu time :  5900.3 secs   av.it.:  15.6
      thresh= 0.547E-05 alpha_mix =  0.700 |ddv_scf|^2 =  0.456E-09

      iter #   6 total cpu time :  5906.0 secs   av.it.:  15.7
      thresh= 0.213E-05 alpha_mix =  0.700 |ddv_scf|^2 =  0.845E-11

      iter #   7 total cpu time :  5911.9 secs   av.it.:  16.2
      thresh= 0.291E-06 alpha_mix =  0.700 |ddv_scf|^2 =  0.682E-12

      iter #   8 total cpu time :  5917.8 secs   av.it.:  16.2
      thresh= 0.826E-07 alpha_mix =  0.700 |ddv_scf|^2 =  0.184E-12

      iter #   9 total cpu time :  5923.3 secs   av.it.:  15.1
      thresh= 0.429E-07 alpha_mix =  0.700 |ddv_scf|^2 =  0.229E-13

      iter #  10 total cpu time :  5928.9 secs   av.it.:  15.1
      thresh= 0.151E-07 alpha_mix =  0.700 |ddv_scf|^2 =  0.854E-15

      iter #  11 total cpu time :  5934.7 secs   av.it.:  15.9
      thresh= 0.292E-08 alpha_mix =  0.700 |ddv_scf|^2 =  0.126E-15

      iter #  12 total cpu time :  5940.3 secs   av.it.:  15.3
      thresh= 0.112E-08 alpha_mix =  0.700 |ddv_scf|^2 =  0.252E-16

     End of self-consistent calculation

     Convergence has been achieved 


     Representation #  3 mode #   3

     Self-consistent Calculation

      iter #   1 total cpu time :  5944.2 secs   av.it.:   8.4
      thresh= 0.100E-01 alpha_mix =  0.700 |ddv_scf|^2 =  0.947E-05

      iter #   2 total cpu time :  5949.8 secs   av.it.:  15.2
      thresh= 0.308E-03 alpha_mix =  0.700 |ddv_scf|^2 =  0.966E-05

      iter #   3 total cpu time :  5955.3 secs   av.it.:  14.5
      thresh= 0.311E-03 alpha_mix =  0.700 |ddv_scf|^2 =  0.496E-08

      iter #   4 total cpu time :  5961.0 secs   av.it.:  15.2
      thresh= 0.704E-05 alpha_mix =  0.700 |ddv_scf|^2 =  0.120E-09

      iter #   5 total cpu time :  5966.7 secs   av.it.:  15.5
      thresh= 0.109E-05 alpha_mix =  0.700 |ddv_scf|^2 =  0.616E-11

      iter #   6 total cpu time :  5972.3 secs   av.it.:  14.8
      thresh= 0.248E-06 alpha_mix =  0.700 |ddv_scf|^2 =  0.336E-13

      iter #   7 total cpu time :  5978.0 secs   av.it.:  15.6
      thresh= 0.183E-07 alpha_mix =  0.700 |ddv_scf|^2 =  0.110E-14

      iter #   8 total cpu time :  5983.6 secs   av.it.:  15.0
      thresh= 0.332E-08 alpha_mix =  0.700 |ddv_scf|^2 =  0.954E-17

     End of self-consistent calculation

     Convergence has been achieved 


     Representation #  4 mode #   4

     Self-consistent Calculation

      iter #   1 total cpu time :  5986.5 secs   av.it.:   5.6
      thresh= 0.100E-01 alpha_mix =  0.700 |ddv_scf|^2 =  0.536E-06

      iter #   2 total cpu time :  5992.1 secs   av.it.:  15.1
      thresh= 0.732E-04 alpha_mix =  0.700 |ddv_scf|^2 =  0.413E-06

      iter #   3 total cpu time :  5997.6 secs   av.it.:  14.5
      thresh= 0.643E-04 alpha_mix =  0.700 |ddv_scf|^2 =  0.125E-08

      iter #   4 total cpu time :  6003.3 secs   av.it.:  15.2
      thresh= 0.354E-05 alpha_mix =  0.700 |ddv_scf|^2 =  0.615E-10

      iter #   5 total cpu time :  6008.9 secs   av.it.:  15.1
      thresh= 0.784E-06 alpha_mix =  0.700 |ddv_scf|^2 =  0.871E-12

      iter #   6 total cpu time :  6014.6 secs   av.it.:  15.4
      thresh= 0.934E-07 alpha_mix =  0.700 |ddv_scf|^2 =  0.464E-14

      iter #   7 total cpu time :  6020.3 secs   av.it.:  15.3
      thresh= 0.681E-08 alpha_mix =  0.700 |ddv_scf|^2 =  0.235E-15

      iter #   8 total cpu time :  6026.0 secs   av.it.:  15.3
      thresh= 0.153E-08 alpha_mix =  0.700 |ddv_scf|^2 =  0.188E-17

     End of self-consistent calculation

     Convergence has been achieved 


     Representation #  5 mode #   5

     Self-consistent Calculation

      iter #   1 total cpu time :  6029.0 secs   av.it.:   5.9
      thresh= 0.100E-01 alpha_mix =  0.700 |ddv_scf|^2 =  0.170E-05

      iter #   2 total cpu time :  6034.6 secs   av.it.:  15.0
      thresh= 0.131E-03 alpha_mix =  0.700 |ddv_scf|^2 =  0.271E-05

      iter #   3 total cpu time :  6039.9 secs   av.it.:  14.2
      thresh= 0.165E-03 alpha_mix =  0.700 |ddv_scf|^2 =  0.240E-08

      iter #   4 total cpu time :  6045.5 secs   av.it.:  15.1
      thresh= 0.490E-05 alpha_mix =  0.700 |ddv_scf|^2 =  0.117E-09

      iter #   5 total cpu time :  6050.9 secs   av.it.:  14.5
      thresh= 0.108E-05 alpha_mix =  0.700 |ddv_scf|^2 =  0.177E-11

      iter #   6 total cpu time :  6056.6 secs   av.it.:  15.2
      thresh= 0.133E-06 alpha_mix =  0.700 |ddv_scf|^2 =  0.228E-13

      iter #   7 total cpu time :  6062.1 secs   av.it.:  14.9
      thresh= 0.151E-07 alpha_mix =  0.700 |ddv_scf|^2 =  0.290E-15

      iter #   8 total cpu time :  6067.7 secs   av.it.:  15.1
      thresh= 0.170E-08 alpha_mix =  0.700 |ddv_scf|^2 =  0.662E-17

     End of self-consistent calculation

     Convergence has been achieved 


     Representation #  6 mode #   6

     Self-consistent Calculation

      iter #   1 total cpu time :  6071.7 secs   av.it.:   8.7
      thresh= 0.100E-01 alpha_mix =  0.700 |ddv_scf|^2 =  0.213E-04

      iter #   2 total cpu time :  6077.3 secs   av.it.:  15.2
      thresh= 0.461E-03 alpha_mix =  0.700 |ddv_scf|^2 =  0.405E-04

      iter #   3 total cpu time :  6082.6 secs   av.it.:  14.1
      thresh= 0.637E-03 alpha_mix =  0.700 |ddv_scf|^2 =  0.181E-07

      iter #   4 total cpu time :  6088.0 secs   av.it.:  14.5
      thresh= 0.135E-04 alpha_mix =  0.700 |ddv_scf|^2 =  0.158E-09

      iter #   5 total cpu time :  6093.8 secs   av.it.:  15.5
      thresh= 0.126E-05 alpha_mix =  0.700 |ddv_scf|^2 =  0.915E-11

      iter #   6 total cpu time :  6099.1 secs   av.it.:  14.2
      thresh= 0.303E-06 alpha_mix =  0.700 |ddv_scf|^2 =  0.989E-13

      iter #   7 total cpu time :  6104.8 secs   av.it.:  15.4
      thresh= 0.314E-07 alpha_mix =  0.700 |ddv_scf|^2 =  0.136E-14

      iter #   8 total cpu time :  6110.6 secs   av.it.:  15.6
      thresh= 0.369E-08 alpha_mix =  0.700 |ddv_scf|^2 =  0.986E-17

     End of self-consistent calculation

     Convergence has been achieved 
 
     Number of q in the star =   12
     List of q in the star:
          1  -1.000000000   0.333333333   0.000000000
          2  -1.000000000  -0.333333333   0.000000000
          3  -1.000000000   0.000000000   0.333333333
          4   1.000000000   0.000000000  -0.333333333
          5   0.000000000  -0.333333333  -1.000000000
          6   0.333333333   0.000000000  -1.000000000
          7  -0.333333333   0.000000000   1.000000000
          8   0.000000000  -1.000000000  -0.333333333
          9   0.000000000  -1.000000000   0.333333333
         10   0.333333333   1.000000000   0.000000000
         11  -0.333333333   1.000000000   0.000000000
         12   0.000000000   0.333333333   1.000000000

     Diagonalizing the dynamical matrix

     q = (   -1.000000000   0.333333333   0.000000000 ) 

 **************************************************************************
     omega( 1) =       0.844590 [THz] =      28.172478 [cm-1]
     omega( 2) =       0.943558 [THz] =      31.473716 [cm-1]
     omega( 3) =       1.773707 [THz] =      59.164490 [cm-1]
     omega( 4) =       2.595937 [THz] =      86.591154 [cm-1]
     omega( 5) =       2.689694 [THz] =      89.718520 [cm-1]
     omega( 6) =       3.065450 [THz] =     102.252419 [cm-1]
 **************************************************************************

     Mode symmetry, C_2v (mm2)  point group:

     omega(  1 -  1) =         28.2  [cm-1]   --> B_1  D_3  S_3      
     omega(  2 -  2) =         31.5  [cm-1]   --> B_2  D_4  S_4      
     omega(  3 -  3) =         59.2  [cm-1]   --> A_1  D_1  S_1      
     omega(  4 -  4) =         86.6  [cm-1]   --> B_1  D_3  S_3      
     omega(  5 -  5) =         89.7  [cm-1]   --> B_2  D_4  S_4      
     omega(  6 -  6) =        102.3  [cm-1]   --> A_1  D_1  S_1      

 **************************************************************************
 
     init_run     :      8.21s CPU      8.97s WALL (      15 calls)
     electrons    :    213.62s CPU    234.62s WALL (      15 calls)

     Called by init_run:
     wfcinit      :      0.00s CPU      0.00s WALL (      15 calls)
     potinit      :      1.03s CPU      1.14s WALL (      15 calls)

     Called by electrons:
     c_bands      :    213.58s CPU    234.55s WALL (      15 calls)
     v_of_rho     :      0.50s CPU      0.53s WALL (      16 calls)
     newd         :      0.89s CPU      0.90s WALL (      16 calls)

     Called by c_bands:
     init_us_2    :      6.24s CPU      6.49s WALL (   44449 calls)
     cegterg      :    195.92s CPU    206.92s WALL (    2350 calls)

     Called by *egterg:
     h_psi        :    174.81s CPU    185.80s WALL (   41765 calls)
     s_psi        :    147.83s CPU    148.92s WALL ( 1705351 calls)
     g_psi        :      1.49s CPU      1.46s WALL (   38173 calls)
     cdiaghg      :     13.35s CPU     13.72s WALL (   39415 calls)

     Called by h_psi:
     add_vuspsi   :     94.73s CPU     95.09s WALL (  853784 calls)

     General routines
     calbec       :    227.11s CPU    221.77s WALL ( 1774847 calls)
     fft          :     30.59s CPU     32.62s WALL (   17395 calls)
     ffts         :      3.02s CPU      3.28s WALL (    6422 calls)
     fftw         :   3736.05s CPU   4032.32s WALL (14607128 calls)
     interpolate  :      0.08s CPU      0.08s WALL (      31 calls)
     davcio       :      1.20s CPU     18.31s WALL (  207336 calls)
 
     Parallel routines
     fft_scatter  :   1730.45s CPU   2012.86s WALL (14630945 calls)
 
     PHONON       :     1h35m CPU        1h41m WALL

     INITIALIZATION: 
     phq_setup    :      1.16s CPU      1.38s WALL (      16 calls)
     phq_init     :     59.11s CPU     60.80s WALL (      16 calls)
 
     phq_init     :     59.11s CPU     60.80s WALL (      16 calls)
     set_drhoc    :     17.98s CPU     17.97s WALL (      48 calls)
     init_vloc    :      0.17s CPU      0.16s WALL (      16 calls)
     init_us_1    :      3.68s CPU      3.73s WALL (      16 calls)
     newd         :      0.89s CPU      0.90s WALL (      16 calls)
     dvanqq       :     11.59s CPU     11.60s WALL (      16 calls)
     drho         :     24.50s CPU     25.75s WALL (      16 calls)
 
     DYNAMICAL MATRIX:
     dynmat0      :     13.72s CPU     14.09s WALL (      16 calls)
     phqscf       :   5397.09s CPU   5748.02s WALL (      16 calls)
     dynmatrix    :      0.16s CPU      0.24s WALL (      16 calls)
 
     phqscf       :   5397.09s CPU   5748.02s WALL (      16 calls)
     solve_linter :   5393.03s CPU   5739.04s WALL (      80 calls)
     drhodv       :      3.29s CPU      3.49s WALL (      80 calls)
 
     dynmat0      :     13.72s CPU     14.09s WALL (      16 calls)
     dynmat_us    :      1.29s CPU      1.32s WALL (      16 calls)
     d2ionq       :      0.03s CPU      0.04s WALL (      16 calls)
     dynmatcc     :     12.20s CPU     12.22s WALL (      16 calls)
 
     dynmat_us    :      1.29s CPU      1.32s WALL (      16 calls)
     addusdynmat  :      0.00s CPU      0.00s WALL (      16 calls)
 
     phqscf       :   5397.09s CPU   5748.02s WALL (      16 calls)
     solve_linter :   5393.03s CPU   5739.04s WALL (      80 calls)
 
     solve_linter :   5393.03s CPU   5739.04s WALL (      80 calls)
     dvqpsi_us    :     25.35s CPU     27.19s WALL (    3822 calls)
     ortho        :     15.27s CPU     15.60s WALL (   39524 calls)
     cgsolve      :   4590.58s CPU   4862.77s WALL (   39524 calls)
     incdrhoscf   :    255.89s CPU    271.95s WALL (   39524 calls)
     addusddens   :     67.54s CPU     68.15s WALL (     890 calls)
     vpsifft      :    195.48s CPU    209.88s WALL (   35558 calls)
     dv_of_drho   :     32.26s CPU     33.59s WALL (     950 calls)
     mix_pot      :      7.38s CPU     19.96s WALL (     817 calls)
     psymdvscf    :     79.60s CPU     86.54s WALL (     810 calls)
     newdq        :     64.81s CPU     65.01s WALL (     817 calls)
     adddvscf     :      5.21s CPU      5.20s WALL (   35702 calls)
     drhodvus     :      0.20s CPU      0.30s WALL (      80 calls)
 
     dvqpsi_us    :     25.35s CPU     27.19s WALL (    3822 calls)
     dvqpsi_us_on :      2.62s CPU      2.75s WALL (    3822 calls)
 
     cgsolve      :   4590.58s CPU   4862.77s WALL (   39524 calls)
     ch_psi       :   4492.87s CPU   4768.40s WALL (  812019 calls)
 
     ch_psi       :   4492.87s CPU   4768.40s WALL (  812019 calls)
     h_psiq       :   4216.12s CPU   4487.84s WALL (  812019 calls)
     last         :    266.23s CPU    268.88s WALL (  812019 calls)
 
     h_psiq       :   4216.12s CPU   4487.84s WALL (  812019 calls)
     firstfft     :   2316.14s CPU   2456.68s WALL ( 6237512 calls)
     secondfft    :   1513.81s CPU   1641.54s WALL ( 6237512 calls)
     add_vuspsi   :     94.73s CPU     95.09s WALL (  853784 calls)
 
     incdrhoscf   :    255.89s CPU    271.95s WALL (   39524 calls)
     addusdbec    :      7.85s CPU      7.75s WALL (   43298 calls)
 
     drhodvus     :      0.20s CPU      0.30s WALL (      80 calls)
 
      General routines
     calbec       :    227.11s CPU    221.77s WALL ( 1774847 calls)
     fft          :     30.59s CPU     32.62s WALL (   17395 calls)
     ffts         :      3.02s CPU      3.28s WALL (    6422 calls)
     fftw         :   3736.05s CPU   4032.32s WALL (14607128 calls)
     cinterpolate :      5.45s CPU      5.71s WALL (    1993 calls)
     davcio       :      1.20s CPU     18.31s WALL (  207336 calls)
     write_rec    :      3.25s CPU     15.49s WALL (     897 calls)
 
TACC: Shutting down parallel environment.
TACC: Shutdown complete. Exiting.
