TACC: Starting up job 1924630
TACC: Setting up parallel environment for MVAPICH ssh-based mpirun.
TACC: Setup complete. Running job script.
TACC: starting parallel tasks...

     Program PWSCF v.5.0.1 starts on 27Apr2014 at 19:44:17 

     This program is part of the open-source Quantum ESPRESSO suite
     for quantum simulation of materials; please cite
         "P. Giannozzi et al., J. Phys.:Condens. Matter 21 395502 (2009);
          URL http://www.quantum-espresso.org", 
     in publications or presentations arising from this work. More details at
     http://www.quantum-espresso.org/quote.php

     Parallel version (MPI), running on    24 processors
     K-points division:     npool     =    2
     R & G space division:  proc/pool =   12

     Current dimensions of program PWSCF are:
     Max number of different atomic species (ntypx) = 10
     Max number of k-points (npk) =  40000
     Max angular momentum in pseudopotentials (lmaxx) =  3
     Waiting for input...
     Reading input from standard input
Warning: card &IONS ignored
Warning: card ION_DYNAMICS='BFGS', ignored
Warning: card / ignored
Warning: card &CELL ignored
Warning: card CELL_DYNAMICS='BFGS', ignored
Warning: card PRESS=0.D0 ignored
Warning: card / ignored

     IMPORTANT: XC functional enforced from input :
     Exchange-correlation      = PBESOL ( 1 410 8 0)
     EXX-fraction              =        0.00
     Any further DFT definition will be discarded
     Please, verify this is what you really want


     Subspace diagonalization in iterative solution of the eigenvalue problem:
     a serial algorithm will be used

 
     Parallelization info
     --------------------
     sticks:   dense  smooth     PW     G-vecs:    dense   smooth      PW
     Min         250      99     29                 9035     2264     356
     Max         251     100     30                 9039     2287     359
     Sum        3001    1189    349               108427    27317    4279
 


     bravais-lattice index     =            0
     lattice parameter (alat)  =      12.0459  a.u.
     unit-cell volume          =     436.9747 (a.u.)^3
     number of atoms/cell      =            2
     number of atomic types    =            2
     number of electrons       =        20.00
     number of Kohn-Sham states=           10
     kinetic-energy cutoff     =      60.0000  Ry
     charge density cutoff     =     600.0000  Ry
     convergence threshold     =      1.0E-10
     mixing beta               =       0.7000
     number of iterations used =            8  plain     mixing
     Exchange-correlation      = PBESOL ( 1 410 8 0)
     EXX-fraction              =        0.00

     celldm(1)=  12.045886  celldm(2)=   0.000000  celldm(3)=   0.000000
     celldm(4)=   0.000000  celldm(5)=   0.000000  celldm(6)=   0.000000

     crystal axes: (cart. coord. in units of alat)
               a(1) = (   0.000000   0.500000   0.500000 )  
               a(2) = (   0.500000   0.000000   0.500000 )  
               a(3) = (   0.500000   0.500000   0.000000 )  

     reciprocal axes: (cart. coord. in units 2 pi/alat)
               b(1) = ( -1.000000  1.000000  1.000000 )  
               b(2) = (  1.000000 -1.000000  1.000000 )  
               b(3) = (  1.000000  1.000000 -1.000000 )  


     PseudoPot. # 1 for Pb read from file:
     /work/02599/asmiller/pseudo/gbrv/pbe_GBRV/pb_pbe_v1.uspp.F.UPF
     MD5 check sum: 3d1c1779aa92214d1e8f3a7db79003e2
     Pseudo is Ultrasoft + core correction, Zval = 14.0
     Generated by new atomic code, or converted to UPF format
     Using radial grid of  899 points,  6 beta functions with: 
                l(1) =   0
                l(2) =   0
                l(3) =   1
                l(4) =   1
                l(5) =   2
                l(6) =   2
     Q(r) pseudized with  6 coefficients,  rinner =    1.000   1.000   1.000
                                                       1.000   1.000

     PseudoPot. # 2 for Te read from file:
     /work/02599/asmiller/pseudo/gbrv/pbe_GBRV/te_pbe_v1.uspp.F.UPF
     MD5 check sum: c319670d6894cc26e93307826a071b75
     Pseudo is Ultrasoft + core correction, Zval =  6.0
     Generated by new atomic code, or converted to UPF format
     Using radial grid of  891 points,  5 beta functions with: 
                l(1) =   0
                l(2) =   0
                l(3) =   1
                l(4) =   1
                l(5) =   2
     Q(r) pseudized with  6 coefficients,  rinner =    1.800   1.800   1.800
                                                       1.800   1.800

     atomic species   valence    mass     pseudopotential
        Pb            14.00   207.20000     Pb( 1.00)
        Te             6.00   127.60000     Te( 1.00)

     48 Sym. Ops., with inversion, found



   Cartesian axes

     site n.     atom                  positions (alat units)
         1           Pb  tau(   1) = (   0.0000000   0.0000000   0.0000000  )
         2           Te  tau(   2) = (   0.5000000   0.5000000   0.5000000  )

     number of k points=    16
                       cart. coord. in units 2pi/alat
        k(    1) = (   0.0000000   0.0000000   0.0000000), wk =   0.0092593
        k(    2) = (   0.1666667   0.1666667  -0.1666667), wk =   0.0740741
        k(    3) = (   0.3333333   0.3333333  -0.3333333), wk =   0.0740741
        k(    4) = (  -0.5000000  -0.5000000   0.5000000), wk =   0.0370370
        k(    5) = (   0.3333333   0.0000000   0.0000000), wk =   0.0555556
        k(    6) = (   0.5000000   0.1666667  -0.1666667), wk =   0.2222222
        k(    7) = (  -0.3333333  -0.6666667   0.6666667), wk =   0.2222222
        k(    8) = (  -0.1666667  -0.5000000   0.5000000), wk =   0.2222222
        k(    9) = (   0.0000000  -0.3333333   0.3333333), wk =   0.1111111
        k(   10) = (   0.6666667   0.0000000   0.0000000), wk =   0.0555556
        k(   11) = (  -0.1666667  -0.8333333   0.8333333), wk =   0.2222222
        k(   12) = (   0.0000000  -0.6666667   0.6666667), wk =   0.1111111
        k(   13) = (  -1.0000000   0.0000000   0.0000000), wk =   0.0277778
        k(   14) = (  -0.3333333  -0.6666667   1.0000000), wk =   0.2222222
        k(   15) = (  -0.1666667  -0.5000000   0.8333333), wk =   0.2222222
        k(   16) = (  -1.0000000   0.3333333   0.0000000), wk =   0.1111111

     Dense  grid:   108427 G-vectors     FFT dimensions: (  72,  72,  72)

     Smooth grid:    27317 G-vectors     FFT dimensions: (  45,  45,  45)

     Largest allocated arrays     est. size (Mb)     dimensions
        Kohn-Sham Wavefunctions         0.04 Mb     (    289,   10)
        NL pseudopotentials             0.14 Mb     (    289,   31)
        Each V/rho on FFT grid          0.47 Mb     (  31104)
        Each G-vector array             0.07 Mb     (   9036)
        G-vector shells                 0.01 Mb     (    729)
     Largest temporary arrays     est. size (Mb)     dimensions
        Each subspace H/S matrix        0.00 Mb     (  10,  10)
        Each <psi_i|beta_j> matrix      0.00 Mb     (     31,   10)
        Arrays for rho mixing           3.80 Mb     (  31104,   8)

     Initial potential from superposition of free atoms
     Check: negative starting charge=   -0.015840

     starting charge   19.99743, renormalised to   20.00000

     negative rho (up, down):  0.158E-01 0.000E+00
     Starting wfc are   13 randomized atomic wfcs

     total cpu time spent up to now is        1.8 secs

     per-process dynamical memory:    60.6 Mb

     Self-consistent Calculation

     iteration #  1     ecut=    60.00 Ry     beta=0.70
     CG style diagonalization
     ethr =  1.00E-02,  avg # of iterations =  2.0

     Threshold (ethr) on eigenvalues was too large:
     Diagonalizing with lowered threshold

     CG style diagonalization
     ethr =  1.53E-04,  avg # of iterations =  2.3

     negative rho (up, down):  0.151E-01 0.000E+00

     total cpu time spent up to now is        2.7 secs

     total energy              =    -190.11477681 Ry
     Harris-Foulkes estimate   =    -190.13037529 Ry
     estimated scf accuracy    <       0.02768894 Ry

     iteration #  2     ecut=    60.00 Ry     beta=0.70
     CG style diagonalization
     ethr =  1.38E-04,  avg # of iterations =  4.2

     negative rho (up, down):  0.155E-01 0.000E+00

     total cpu time spent up to now is        3.3 secs

     total energy              =    -190.12230987 Ry
     Harris-Foulkes estimate   =    -190.13019462 Ry
     estimated scf accuracy    <       0.01429970 Ry

     iteration #  3     ecut=    60.00 Ry     beta=0.70
     CG style diagonalization
     ethr =  7.15E-05,  avg # of iterations =  3.6

     negative rho (up, down):  0.155E-01 0.000E+00

     total cpu time spent up to now is        3.8 secs

     total energy              =    -190.12580281 Ry
     Harris-Foulkes estimate   =    -190.12581414 Ry
     estimated scf accuracy    <       0.00013478 Ry

     iteration #  4     ecut=    60.00 Ry     beta=0.70
     CG style diagonalization
     ethr =  6.74E-07,  avg # of iterations =  4.9

     negative rho (up, down):  0.155E-01 0.000E+00

     total cpu time spent up to now is        4.4 secs

     total energy              =    -190.12597113 Ry
     Harris-Foulkes estimate   =    -190.12597408 Ry
     estimated scf accuracy    <       0.00001381 Ry

     iteration #  5     ecut=    60.00 Ry     beta=0.70
     CG style diagonalization
     ethr =  6.90E-08,  avg # of iterations =  6.0

     negative rho (up, down):  0.156E-01 0.000E+00

     total cpu time spent up to now is        5.0 secs

     total energy              =    -190.12598773 Ry
     Harris-Foulkes estimate   =    -190.12598791 Ry
     estimated scf accuracy    <       0.00000455 Ry

     iteration #  6     ecut=    60.00 Ry     beta=0.70
     CG style diagonalization
     ethr =  2.27E-08,  avg # of iterations =  4.2

     negative rho (up, down):  0.154E-01 0.000E+00

     total cpu time spent up to now is        5.6 secs

     total energy              =    -190.12599259 Ry
     Harris-Foulkes estimate   =    -190.12598991 Ry
     estimated scf accuracy    <       0.00000435 Ry

     iteration #  7     ecut=    60.00 Ry     beta=0.70
     CG style diagonalization
     ethr =  2.17E-08,  avg # of iterations =  3.3

     negative rho (up, down):  0.159E-01 0.000E+00

     total cpu time spent up to now is        6.0 secs

     total energy              =    -190.12598843 Ry
     Harris-Foulkes estimate   =    -190.12599307 Ry
     estimated scf accuracy    <       0.00000888 Ry

     iteration #  8     ecut=    60.00 Ry     beta=0.70
     CG style diagonalization
     ethr =  2.17E-08,  avg # of iterations =  4.1

     negative rho (up, down):  0.158E-01 0.000E+00

     total cpu time spent up to now is        6.5 secs

     total energy              =    -190.12598924 Ry
     Harris-Foulkes estimate   =    -190.12599050 Ry
     estimated scf accuracy    <       0.00000453 Ry

     iteration #  9     ecut=    60.00 Ry     beta=0.70
     CG style diagonalization
     ethr =  2.17E-08,  avg # of iterations =  3.0

     negative rho (up, down):  0.158E-01 0.000E+00

     total cpu time spent up to now is        7.0 secs

     total energy              =    -190.12598883 Ry
     Harris-Foulkes estimate   =    -190.12598945 Ry
     estimated scf accuracy    <       0.00000200 Ry

     iteration # 10     ecut=    60.00 Ry     beta=0.70
     CG style diagonalization
     ethr =  1.00E-08,  avg # of iterations =  3.0

     negative rho (up, down):  0.158E-01 0.000E+00

     total cpu time spent up to now is        7.4 secs

     total energy              =    -190.12598879 Ry
     Harris-Foulkes estimate   =    -190.12598894 Ry
     estimated scf accuracy    <       0.00000081 Ry

     iteration # 11     ecut=    60.00 Ry     beta=0.70
     CG style diagonalization
     ethr =  4.03E-09,  avg # of iterations =  3.7

     negative rho (up, down):  0.158E-01 0.000E+00

     total cpu time spent up to now is        7.9 secs

     total energy              =    -190.12598910 Ry
     Harris-Foulkes estimate   =    -190.12598897 Ry
     estimated scf accuracy    <       0.00000050 Ry

     iteration # 12     ecut=    60.00 Ry     beta=0.70
     CG style diagonalization
     ethr =  2.52E-09,  avg # of iterations =  3.9

     negative rho (up, down):  0.158E-01 0.000E+00

     total cpu time spent up to now is        8.4 secs

     total energy              =    -190.12598914 Ry
     Harris-Foulkes estimate   =    -190.12598927 Ry
     estimated scf accuracy    <       0.00000087 Ry

     iteration # 13     ecut=    60.00 Ry     beta=0.70
     CG style diagonalization
     ethr =  2.52E-09,  avg # of iterations =  3.1

     negative rho (up, down):  0.158E-01 0.000E+00

     total cpu time spent up to now is        8.9 secs

     total energy              =    -190.12598904 Ry
     Harris-Foulkes estimate   =    -190.12598917 Ry
     estimated scf accuracy    <       0.00000057 Ry

     iteration # 14     ecut=    60.00 Ry     beta=0.70
     CG style diagonalization
     ethr =  2.52E-09,  avg # of iterations =  3.4

     negative rho (up, down):  0.158E-01 0.000E+00

     total cpu time spent up to now is        9.4 secs

     total energy              =    -190.12598930 Ry
     Harris-Foulkes estimate   =    -190.12598911 Ry
     estimated scf accuracy    <       0.00000036 Ry

     iteration # 15     ecut=    60.00 Ry     beta=0.70
     CG style diagonalization
     ethr =  1.79E-09,  avg # of iterations =  3.8

     negative rho (up, down):  0.158E-01 0.000E+00

     total cpu time spent up to now is       10.0 secs

     total energy              =    -190.12598925 Ry
     Harris-Foulkes estimate   =    -190.12598937 Ry
     estimated scf accuracy    <       0.00000086 Ry

     iteration # 16     ecut=    60.00 Ry     beta=0.70
     CG style diagonalization
     ethr =  1.79E-09,  avg # of iterations =  3.0

     negative rho (up, down):  0.157E-01 0.000E+00

     total cpu time spent up to now is       10.4 secs

     total energy              =    -190.12598897 Ry
     Harris-Foulkes estimate   =    -190.12598926 Ry
     estimated scf accuracy    <       0.00000064 Ry

     iteration # 17     ecut=    60.00 Ry     beta=0.70
     CG style diagonalization
     ethr =  1.79E-09,  avg # of iterations =  4.2

     negative rho (up, down):  0.158E-01 0.000E+00

     total cpu time spent up to now is       10.9 secs

     total energy              =    -190.12598882 Ry
     Harris-Foulkes estimate   =    -190.12598933 Ry
     estimated scf accuracy    <       0.00000088 Ry

     iteration # 18     ecut=    60.00 Ry     beta=0.70
     CG style diagonalization
     ethr =  1.79E-09,  avg # of iterations =  3.9

     negative rho (up, down):  0.158E-01 0.000E+00

     total cpu time spent up to now is       11.4 secs

     total energy              =    -190.12598909 Ry
     Harris-Foulkes estimate   =    -190.12598906 Ry
     estimated scf accuracy    <       0.00000023 Ry

     iteration # 19     ecut=    60.00 Ry     beta=0.70
     CG style diagonalization
     ethr =  1.13E-09,  avg # of iterations =  3.1

     negative rho (up, down):  0.158E-01 0.000E+00

     total cpu time spent up to now is       11.9 secs

     total energy              =    -190.12598898 Ry
     Harris-Foulkes estimate   =    -190.12598909 Ry
     estimated scf accuracy    <       0.00000027 Ry

     iteration # 20     ecut=    60.00 Ry     beta=0.70
     CG style diagonalization
     ethr =  1.13E-09,  avg # of iterations =  3.0

     negative rho (up, down):  0.157E-01 0.000E+00

     total cpu time spent up to now is       12.3 secs

     total energy              =    -190.12598895 Ry
     Harris-Foulkes estimate   =    -190.12598899 Ry
     estimated scf accuracy    <       0.00000007 Ry

     iteration # 21     ecut=    60.00 Ry     beta=0.70
     CG style diagonalization
     ethr =  3.73E-10,  avg # of iterations =  4.5

     negative rho (up, down):  0.157E-01 0.000E+00

     total cpu time spent up to now is       12.9 secs

     total energy              =    -190.12598899 Ry
     Harris-Foulkes estimate   =    -190.12598899 Ry
     estimated scf accuracy    <       0.00000001 Ry

     iteration # 22     ecut=    60.00 Ry     beta=0.70
     CG style diagonalization
     ethr =  5.54E-11,  avg # of iterations =  6.0

     negative rho (up, down):  0.157E-01 0.000E+00

     total cpu time spent up to now is       13.5 secs

     total energy              =    -190.12598900 Ry
     Harris-Foulkes estimate   =    -190.12598900 Ry
     estimated scf accuracy    <          3.4E-09 Ry

     iteration # 23     ecut=    60.00 Ry     beta=0.70
     CG style diagonalization
     ethr =  1.72E-11,  avg # of iterations =  4.4

     negative rho (up, down):  0.157E-01 0.000E+00

     total cpu time spent up to now is       14.1 secs

     total energy              =    -190.12598900 Ry
     Harris-Foulkes estimate   =    -190.12598900 Ry
     estimated scf accuracy    <          2.8E-09 Ry

     iteration # 24     ecut=    60.00 Ry     beta=0.70
     CG style diagonalization
     ethr =  1.42E-11,  avg # of iterations =  3.2

     negative rho (up, down):  0.157E-01 0.000E+00

     total cpu time spent up to now is       14.5 secs

     total energy              =    -190.12598900 Ry
     Harris-Foulkes estimate   =    -190.12598900 Ry
     estimated scf accuracy    <          3.1E-09 Ry

     iteration # 25     ecut=    60.00 Ry     beta=0.70
     CG style diagonalization
     ethr =  1.42E-11,  avg # of iterations =  3.0

     negative rho (up, down):  0.157E-01 0.000E+00

     total cpu time spent up to now is       15.0 secs

     total energy              =    -190.12598900 Ry
     Harris-Foulkes estimate   =    -190.12598900 Ry
     estimated scf accuracy    <          3.3E-09 Ry

     iteration # 26     ecut=    60.00 Ry     beta=0.70
     CG style diagonalization
     ethr =  1.42E-11,  avg # of iterations =  3.0

     negative rho (up, down):  0.157E-01 0.000E+00

     total cpu time spent up to now is       15.4 secs

     total energy              =    -190.12598900 Ry
     Harris-Foulkes estimate   =    -190.12598900 Ry
     estimated scf accuracy    <          3.3E-09 Ry

     iteration # 27     ecut=    60.00 Ry     beta=0.70
     CG style diagonalization
     ethr =  1.42E-11,  avg # of iterations =  3.0

     negative rho (up, down):  0.157E-01 0.000E+00

     total cpu time spent up to now is       15.8 secs

     total energy              =    -190.12598900 Ry
     Harris-Foulkes estimate   =    -190.12598900 Ry
     estimated scf accuracy    <          1.9E-09 Ry

     iteration # 28     ecut=    60.00 Ry     beta=0.70
     CG style diagonalization
     ethr =  9.35E-12,  avg # of iterations =  3.6

     negative rho (up, down):  0.157E-01 0.000E+00

     total cpu time spent up to now is       16.3 secs

     total energy              =    -190.12598900 Ry
     Harris-Foulkes estimate   =    -190.12598900 Ry
     estimated scf accuracy    <          1.4E-10 Ry

     iteration # 29     ecut=    60.00 Ry     beta=0.70
     CG style diagonalization
     ethr =  6.96E-13,  avg # of iterations =  7.9

     negative rho (up, down):  0.157E-01 0.000E+00

     total cpu time spent up to now is       17.1 secs

     End of self-consistent calculation

          k = 0.0000 0.0000 0.0000 (  3479 PWs)   bands (ev):

    -8.7748  -8.7748  -8.7601  -8.7601  -8.7601  -4.4307   2.4515   6.4534
     6.4534   6.4534

          k = 0.1667 0.1667-0.1667 (  3443 PWs)   bands (ev):

    -8.7784  -8.7784  -8.7593  -8.7554  -8.7554  -4.1785   1.6182   6.5255
     6.5255   6.9071

          k = 0.3333 0.3333-0.3333 (  3428 PWs)   bands (ev):

    -8.7870  -8.7870  -8.7580  -8.7443  -8.7443  -3.4829   0.0707   6.7503
     6.7503   7.5309

          k =-0.5000-0.5000 0.5000 (  3426 PWs)   bands (ev):

    -8.7916  -8.7916  -8.7575  -8.7386  -8.7386  -2.8672  -0.8901   6.9419
     6.9419   7.9680

          k = 0.3333 0.0000 0.0000 (  3455 PWs)   bands (ev):

    -8.7882  -8.7714  -8.7632  -8.7525  -8.7525  -4.0943   1.5862   5.9868
     5.9868   7.5486

          k = 0.5000 0.1667-0.1667 (  3440 PWs)   bands (ev):

    -8.8016  -8.7746  -8.7623  -8.7457  -8.7424  -3.5469   0.5703   5.8101
     5.8969   6.6080

          k =-0.3333-0.6667 0.6667 (  3415 PWs)   bands (ev):

    -8.8056  -8.7833  -8.7562  -8.7427  -8.7367  -2.8178  -0.5786   5.3919
     6.1082   6.5420

          k =-0.1667-0.5000 0.5000 (  3439 PWs)   bands (ev):

    -8.7966  -8.7878  -8.7541  -8.7431  -8.7422  -3.0285  -0.3397   5.0284
     6.7686   7.3176

          k = 0.0000-0.3333 0.3333 (  3433 PWs)   bands (ev):

    -8.7852  -8.7829  -8.7581  -8.7516  -8.7470  -3.7746   0.7989   5.4619
     7.0490   7.7315

          k = 0.6667 0.0000 0.0000 (  3423 PWs)   bands (ev):

    -8.8277  -8.7694  -8.7645  -8.7366  -8.7366  -3.2055   0.7005   4.7984
     5.2227   5.2227

          k =-0.1667-0.8333 0.8333 (  3419 PWs)   bands (ev):

    -8.8368  -8.7679  -8.7665  -8.7343  -8.7317  -2.6710   0.1239   3.7449
     5.2175   5.3742

          k = 0.0000-0.6667 0.6667 (  3444 PWs)   bands (ev):

    -8.8207  -8.7784  -8.7547  -8.7423  -8.7357  -2.5251  -0.4256   3.7849
     5.8067   6.1447

          k =-1.0000 0.0000 0.0000 (  3378 PWs)   bands (ev):

    -8.8530  -8.7725  -8.7611  -8.7283  -8.7283  -2.5720   0.5554   3.0821
     4.8971   4.8971

          k =-0.3333-0.6667 1.0000 (  3423 PWs)   bands (ev):

    -8.8156  -8.7763  -8.7600  -8.7413  -8.7369  -2.9605   0.0011   4.6459
     5.1048   6.8637

          k =-0.1667-0.5000 0.8333 (  3418 PWs)   bands (ev):

    -8.8202  -8.7794  -8.7515  -8.7484  -8.7324  -2.5240  -0.4334   4.3376
     4.4604   7.4747

          k =-1.0000 0.3333 0.0000 (  3406 PWs)   bands (ev):

    -8.8368  -8.7712  -8.7619  -8.7398  -8.7283  -2.4445  -0.0499   3.4352
     4.3078   6.5593

!    total energy              =    -190.12598900 Ry
     Harris-Foulkes estimate   =    -190.12598900 Ry
     estimated scf accuracy    <          4.1E-11 Ry

     The total energy is the sum of the following terms:

     one-electron contribution =     -43.75845425 Ry
     hartree contribution      =      34.38791759 Ry
     xc contribution           =     -77.25429774 Ry
     ewald contribution        =    -103.50115460 Ry

     convergence has been achieved in  29 iterations

     Forces acting on atoms (Ry/au):


     negative rho (up, down):  0.157E-01 0.000E+00
     atom    1 type  1   force =     0.00000000    0.00000000    0.00000000
     atom    2 type  2   force =     0.00000000    0.00000000    0.00000000

     Total force =     0.000000     Total SCF correction =     0.000000


     entering subroutine stress ...


     negative rho (up, down):  0.157E-01 0.000E+00
          total   stress  (Ry/bohr**3)                   (kbar)     P=   15.09
   0.00010261   0.00000000   0.00000000         15.09      0.00      0.00
   0.00000000   0.00010261   0.00000000          0.00     15.09      0.00
   0.00000000   0.00000000   0.00010261          0.00      0.00     15.09


     Writing output data file PbTe.save
 
     init_run     :      1.01s CPU      1.24s WALL (       1 calls)
     electrons    :     13.90s CPU     15.23s WALL (       1 calls)
     forces       :      0.16s CPU      0.18s WALL (       1 calls)
     stress       :      0.50s CPU      0.50s WALL (       1 calls)

     Called by init_run:
     wfcinit      :      0.12s CPU      0.24s WALL (       1 calls)
     potinit      :      0.11s CPU      0.13s WALL (       1 calls)

     Called by electrons:
     c_bands      :      7.83s CPU      8.16s WALL (      30 calls)
     sum_band     :      2.82s CPU      2.89s WALL (      30 calls)
     v_of_rho     :      0.88s CPU      0.93s WALL (      30 calls)
     newd         :      1.61s CPU      1.62s WALL (      30 calls)
     mix_rho      :      0.16s CPU      0.18s WALL (      30 calls)

     Called by c_bands:
     init_us_2    :      0.07s CPU      0.07s WALL (     504 calls)
     ccgdiagg     :      6.03s CPU      6.24s WALL (     240 calls)
     wfcrot       :      1.66s CPU      1.87s WALL (     232 calls)

     Called by *cgdiagg:
     h_psi        :      6.41s CPU      6.73s WALL (    7071 calls)
     s_psi        :      0.15s CPU      0.17s WALL (   13910 calls)
     cdiaghg      :      0.03s CPU      0.12s WALL (     232 calls)

     Called by h_psi:
     add_vuspsi   :      0.08s CPU      0.12s WALL (    7071 calls)

     General routines
     calbec       :      0.80s CPU      0.72s WALL (   14166 calls)
     fft          :      0.88s CPU      0.97s WALL (     505 calls)
     ffts         :      0.04s CPU      0.03s WALL (      60 calls)
     fftw         :      5.62s CPU      5.84s WALL (   20766 calls)
     interpolate  :      0.17s CPU      0.16s WALL (      60 calls)
     davcio       :      0.01s CPU      0.04s WALL (     744 calls)
 
     Parallel routines
     fft_scatter  :      2.98s CPU      3.35s WALL (   21331 calls)
 
     PWSCF        :    15.83s CPU        18.63s WALL

 
   This run was terminated on:  19:44:36  27Apr2014            

=------------------------------------------------------------------------------=
   JOB DONE.
=------------------------------------------------------------------------------=
TACC: Shutting down parallel environment.
TACC: Shutdown complete. Exiting.
