TACC: Starting up job 1924207
TACC: Setting up parallel environment for MVAPICH ssh-based mpirun.
TACC: Setup complete. Running job script.
TACC: starting parallel tasks...

     Program PWSCF v.5.0.1 starts on 27Apr2014 at 17:14:17 

     This program is part of the open-source Quantum ESPRESSO suite
     for quantum simulation of materials; please cite
         "P. Giannozzi et al., J. Phys.:Condens. Matter 21 395502 (2009);
          URL http://www.quantum-espresso.org", 
     in publications or presentations arising from this work. More details at
     http://www.quantum-espresso.org/quote.php

     Parallel version (MPI), running on    24 processors
     K-points division:     npool     =    2
     R & G space division:  proc/pool =   12

     Current dimensions of program PWSCF are:
     Max number of different atomic species (ntypx) = 10
     Max number of k-points (npk) =  40000
     Max angular momentum in pseudopotentials (lmaxx) =  3
     Waiting for input...
     Reading input from standard input
Warning: card &IONS ignored
Warning: card ION_DYNAMICS='BFGS', ignored
Warning: card / ignored
Warning: card &CELL ignored
Warning: card CELL_DYNAMICS='BFGS', ignored
Warning: card PRESS=0.D0 ignored
Warning: card / ignored

     IMPORTANT: XC functional enforced from input :
     Exchange-correlation      = PBESOL ( 1 410 8 0)
     EXX-fraction              =        0.00
     Any further DFT definition will be discarded
     Please, verify this is what you really want


     Subspace diagonalization in iterative solution of the eigenvalue problem:
     a serial algorithm will be used

 
     Parallelization info
     --------------------
     sticks:   dense  smooth     PW     G-vecs:    dense   smooth      PW
     Min         254     103     29                 9302     2365     356
     Max         255     104     30                 9306     2383     359
     Sum        3055    1237    349               111643    28475    4285
 


     bravais-lattice index     =            0
     lattice parameter (alat)  =      12.1676  a.u.
     unit-cell volume          =     450.3505 (a.u.)^3
     number of atoms/cell      =            2
     number of atomic types    =            2
     number of electrons       =        20.00
     number of Kohn-Sham states=           10
     kinetic-energy cutoff     =      60.0000  Ry
     charge density cutoff     =     600.0000  Ry
     convergence threshold     =      1.0E-10
     mixing beta               =       0.7000
     number of iterations used =            8  plain     mixing
     Exchange-correlation      = PBESOL ( 1 410 8 0)
     EXX-fraction              =        0.00

     celldm(1)=  12.167562  celldm(2)=   0.000000  celldm(3)=   0.000000
     celldm(4)=   0.000000  celldm(5)=   0.000000  celldm(6)=   0.000000

     crystal axes: (cart. coord. in units of alat)
               a(1) = (   0.000000   0.500000   0.500000 )  
               a(2) = (   0.500000   0.000000   0.500000 )  
               a(3) = (   0.500000   0.500000   0.000000 )  

     reciprocal axes: (cart. coord. in units 2 pi/alat)
               b(1) = ( -1.000000  1.000000  1.000000 )  
               b(2) = (  1.000000 -1.000000  1.000000 )  
               b(3) = (  1.000000  1.000000 -1.000000 )  


     PseudoPot. # 1 for Pb read from file:
     /work/02599/asmiller/pseudo/gbrv/pbe_GBRV/pb_pbe_v1.uspp.F.UPF
     MD5 check sum: 3d1c1779aa92214d1e8f3a7db79003e2
     Pseudo is Ultrasoft + core correction, Zval = 14.0
     Generated by new atomic code, or converted to UPF format
     Using radial grid of  899 points,  6 beta functions with: 
                l(1) =   0
                l(2) =   0
                l(3) =   1
                l(4) =   1
                l(5) =   2
                l(6) =   2
     Q(r) pseudized with  6 coefficients,  rinner =    1.000   1.000   1.000
                                                       1.000   1.000

     PseudoPot. # 2 for Te read from file:
     /work/02599/asmiller/pseudo/gbrv/pbe_GBRV/te_pbe_v1.uspp.F.UPF
     MD5 check sum: c319670d6894cc26e93307826a071b75
     Pseudo is Ultrasoft + core correction, Zval =  6.0
     Generated by new atomic code, or converted to UPF format
     Using radial grid of  891 points,  5 beta functions with: 
                l(1) =   0
                l(2) =   0
                l(3) =   1
                l(4) =   1
                l(5) =   2
     Q(r) pseudized with  6 coefficients,  rinner =    1.800   1.800   1.800
                                                       1.800   1.800

     atomic species   valence    mass     pseudopotential
        Pb            14.00   207.20000     Pb( 1.00)
        Te             6.00   127.60000     Te( 1.00)

     48 Sym. Ops., with inversion, found



   Cartesian axes

     site n.     atom                  positions (alat units)
         1           Pb  tau(   1) = (   0.0000000   0.0000000   0.0000000  )
         2           Te  tau(   2) = (   0.5000000   0.5000000   0.5000000  )

     number of k points=    16
                       cart. coord. in units 2pi/alat
        k(    1) = (   0.0000000   0.0000000   0.0000000), wk =   0.0092593
        k(    2) = (   0.1666667   0.1666667  -0.1666667), wk =   0.0740741
        k(    3) = (   0.3333333   0.3333333  -0.3333333), wk =   0.0740741
        k(    4) = (  -0.5000000  -0.5000000   0.5000000), wk =   0.0370370
        k(    5) = (   0.3333333   0.0000000   0.0000000), wk =   0.0555556
        k(    6) = (   0.5000000   0.1666667  -0.1666667), wk =   0.2222222
        k(    7) = (  -0.3333333  -0.6666667   0.6666667), wk =   0.2222222
        k(    8) = (  -0.1666667  -0.5000000   0.5000000), wk =   0.2222222
        k(    9) = (   0.0000000  -0.3333333   0.3333333), wk =   0.1111111
        k(   10) = (   0.6666667   0.0000000   0.0000000), wk =   0.0555556
        k(   11) = (  -0.1666667  -0.8333333   0.8333333), wk =   0.2222222
        k(   12) = (   0.0000000  -0.6666667   0.6666667), wk =   0.1111111
        k(   13) = (  -1.0000000   0.0000000   0.0000000), wk =   0.0277778
        k(   14) = (  -0.3333333  -0.6666667   1.0000000), wk =   0.2222222
        k(   15) = (  -0.1666667  -0.5000000   0.8333333), wk =   0.2222222
        k(   16) = (  -1.0000000   0.3333333   0.0000000), wk =   0.1111111

     Dense  grid:   111643 G-vectors     FFT dimensions: (  72,  72,  72)

     Smooth grid:    28475 G-vectors     FFT dimensions: (  45,  45,  45)

     Largest allocated arrays     est. size (Mb)     dimensions
        Kohn-Sham Wavefunctions         0.05 Mb     (    298,   10)
        NL pseudopotentials             0.14 Mb     (    298,   31)
        Each V/rho on FFT grid          0.47 Mb     (  31104)
        Each G-vector array             0.07 Mb     (   9303)
        G-vector shells                 0.01 Mb     (    749)
     Largest temporary arrays     est. size (Mb)     dimensions
        Each subspace H/S matrix        0.00 Mb     (  10,  10)
        Each <psi_i|beta_j> matrix      0.00 Mb     (     31,   10)
        Arrays for rho mixing           3.80 Mb     (  31104,   8)

     Initial potential from superposition of free atoms
     Check: negative starting charge=   -0.015895

     starting charge   19.99743, renormalised to   20.00000

     negative rho (up, down):  0.159E-01 0.000E+00
     Starting wfc are   13 randomized atomic wfcs

     total cpu time spent up to now is        1.7 secs

     per-process dynamical memory:    60.9 Mb

     Self-consistent Calculation

     iteration #  1     ecut=    60.00 Ry     beta=0.70
     CG style diagonalization
     ethr =  1.00E-02,  avg # of iterations =  2.0

     Threshold (ethr) on eigenvalues was too large:
     Diagonalizing with lowered threshold

     CG style diagonalization
     ethr =  1.68E-04,  avg # of iterations =  2.2

     negative rho (up, down):  0.151E-01 0.000E+00

     total cpu time spent up to now is        2.7 secs

     total energy              =    -190.11375345 Ry
     Harris-Foulkes estimate   =    -190.13164677 Ry
     estimated scf accuracy    <       0.03105781 Ry

     iteration #  2     ecut=    60.00 Ry     beta=0.70
     CG style diagonalization
     ethr =  1.55E-04,  avg # of iterations =  4.1

     negative rho (up, down):  0.155E-01 0.000E+00

     total cpu time spent up to now is        3.3 secs

     total energy              =    -190.12227904 Ry
     Harris-Foulkes estimate   =    -190.13189909 Ry
     estimated scf accuracy    <       0.01768105 Ry

     iteration #  3     ecut=    60.00 Ry     beta=0.70
     CG style diagonalization
     ethr =  8.84E-05,  avg # of iterations =  3.6

     negative rho (up, down):  0.155E-01 0.000E+00

     total cpu time spent up to now is        3.8 secs

     total energy              =    -190.12650051 Ry
     Harris-Foulkes estimate   =    -190.12650944 Ry
     estimated scf accuracy    <       0.00014066 Ry

     iteration #  4     ecut=    60.00 Ry     beta=0.70
     CG style diagonalization
     ethr =  7.03E-07,  avg # of iterations =  4.9

     negative rho (up, down):  0.155E-01 0.000E+00

     total cpu time spent up to now is        4.4 secs

     total energy              =    -190.12666788 Ry
     Harris-Foulkes estimate   =    -190.12667016 Ry
     estimated scf accuracy    <       0.00001195 Ry

     iteration #  5     ecut=    60.00 Ry     beta=0.70
     CG style diagonalization
     ethr =  5.97E-08,  avg # of iterations =  6.3

     negative rho (up, down):  0.155E-01 0.000E+00

     total cpu time spent up to now is        5.1 secs

     total energy              =    -190.12668456 Ry
     Harris-Foulkes estimate   =    -190.12668497 Ry
     estimated scf accuracy    <       0.00000382 Ry

     iteration #  6     ecut=    60.00 Ry     beta=0.70
     CG style diagonalization
     ethr =  1.91E-08,  avg # of iterations =  4.3

     negative rho (up, down):  0.156E-01 0.000E+00

     total cpu time spent up to now is        5.6 secs

     total energy              =    -190.12668569 Ry
     Harris-Foulkes estimate   =    -190.12668633 Ry
     estimated scf accuracy    <       0.00000312 Ry

     iteration #  7     ecut=    60.00 Ry     beta=0.70
     CG style diagonalization
     ethr =  1.56E-08,  avg # of iterations =  3.2

     negative rho (up, down):  0.158E-01 0.000E+00

     total cpu time spent up to now is        6.1 secs

     total energy              =    -190.12668509 Ry
     Harris-Foulkes estimate   =    -190.12668593 Ry
     estimated scf accuracy    <       0.00000205 Ry

     iteration #  8     ecut=    60.00 Ry     beta=0.70
     CG style diagonalization
     ethr =  1.02E-08,  avg # of iterations =  3.8

     negative rho (up, down):  0.157E-01 0.000E+00

     total cpu time spent up to now is        6.6 secs

     total energy              =    -190.12668534 Ry
     Harris-Foulkes estimate   =    -190.12668550 Ry
     estimated scf accuracy    <       0.00000029 Ry

     iteration #  9     ecut=    60.00 Ry     beta=0.70
     CG style diagonalization
     ethr =  1.46E-09,  avg # of iterations =  5.7

     negative rho (up, down):  0.157E-01 0.000E+00

     total cpu time spent up to now is        7.2 secs

     total energy              =    -190.12668563 Ry
     Harris-Foulkes estimate   =    -190.12668567 Ry
     estimated scf accuracy    <       0.00000008 Ry

     iteration # 10     ecut=    60.00 Ry     beta=0.70
     CG style diagonalization
     ethr =  4.23E-10,  avg # of iterations =  5.1

     negative rho (up, down):  0.157E-01 0.000E+00

     total cpu time spent up to now is        7.8 secs

     total energy              =    -190.12668566 Ry
     Harris-Foulkes estimate   =    -190.12668569 Ry
     estimated scf accuracy    <       0.00000004 Ry

     iteration # 11     ecut=    60.00 Ry     beta=0.70
     CG style diagonalization
     ethr =  2.12E-10,  avg # of iterations =  3.9

     negative rho (up, down):  0.157E-01 0.000E+00

     total cpu time spent up to now is        8.4 secs

     total energy              =    -190.12668567 Ry
     Harris-Foulkes estimate   =    -190.12668567 Ry
     estimated scf accuracy    <          6.6E-09 Ry

     iteration # 12     ecut=    60.00 Ry     beta=0.70
     CG style diagonalization
     ethr =  3.28E-11,  avg # of iterations =  7.3

     negative rho (up, down):  0.157E-01 0.000E+00

     total cpu time spent up to now is        9.1 secs

     total energy              =    -190.12668568 Ry
     Harris-Foulkes estimate   =    -190.12668568 Ry
     estimated scf accuracy    <          5.4E-09 Ry

     iteration # 13     ecut=    60.00 Ry     beta=0.70
     CG style diagonalization
     ethr =  2.72E-11,  avg # of iterations =  3.3

     negative rho (up, down):  0.157E-01 0.000E+00

     total cpu time spent up to now is        9.6 secs

     total energy              =    -190.12668568 Ry
     Harris-Foulkes estimate   =    -190.12668568 Ry
     estimated scf accuracy    <          1.5E-09 Ry

     iteration # 14     ecut=    60.00 Ry     beta=0.70
     CG style diagonalization
     ethr =  7.50E-12,  avg # of iterations =  4.8

     negative rho (up, down):  0.157E-01 0.000E+00

     total cpu time spent up to now is       10.2 secs

     total energy              =    -190.12668568 Ry
     Harris-Foulkes estimate   =    -190.12668568 Ry
     estimated scf accuracy    <          6.2E-10 Ry

     iteration # 15     ecut=    60.00 Ry     beta=0.70
     CG style diagonalization
     ethr =  3.11E-12,  avg # of iterations =  4.4

     negative rho (up, down):  0.157E-01 0.000E+00

     total cpu time spent up to now is       10.8 secs

     total energy              =    -190.12668568 Ry
     Harris-Foulkes estimate   =    -190.12668568 Ry
     estimated scf accuracy    <          1.5E-10 Ry

     iteration # 16     ecut=    60.00 Ry     beta=0.70
     CG style diagonalization
     ethr =  7.53E-13,  avg # of iterations =  5.8

     negative rho (up, down):  0.157E-01 0.000E+00

     total cpu time spent up to now is       11.3 secs

     End of self-consistent calculation

          k = 0.0000 0.0000 0.0000 (  3527 PWs)   bands (ev):

    -9.1740  -9.1740  -9.1620  -9.1620  -9.1620  -4.6269   1.9154   6.1142
     6.1142   6.1142

          k = 0.1667 0.1667-0.1667 (  3557 PWs)   bands (ev):

    -9.1771  -9.1771  -9.1612  -9.1578  -9.1578  -4.3852   1.1603   6.1836
     6.1836   6.5113

          k = 0.3333 0.3333-0.3333 (  3548 PWs)   bands (ev):

    -9.1846  -9.1846  -9.1600  -9.1480  -9.1480  -3.7222  -0.2803   6.3987
     6.3987   7.0905

          k =-0.5000-0.5000 0.5000 (  3582 PWs)   bands (ev):

    -9.1885  -9.1885  -9.1594  -9.1430  -9.1430  -3.1460  -1.1766   6.5803
     6.5803   7.4987

          k = 0.3333 0.0000 0.0000 (  3543 PWs)   bands (ev):

    -9.1855  -9.1710  -9.1647  -9.1553  -9.1553  -4.3052   1.1232   5.6675
     5.6675   7.1375

          k = 0.5000 0.1667-0.1667 (  3544 PWs)   bands (ev):

    -9.1969  -9.1738  -9.1638  -9.1492  -9.1463  -3.7850   0.1800   5.4983
     5.5717   6.2435

          k =-0.3333-0.6667 0.6667 (  3548 PWs)   bands (ev):

    -9.2003  -9.1813  -9.1583  -9.1466  -9.1413  -3.1018  -0.8867   5.0876
     5.7858   6.1666

          k =-0.1667-0.5000 0.5000 (  3537 PWs)   bands (ev):

    -9.1926  -9.1851  -9.1565  -9.1468  -9.1462  -3.2963  -0.6681   4.7425
     6.4189   6.9108

          k = 0.0000-0.3333 0.3333 (  3545 PWs)   bands (ev):

    -9.1829  -9.1809  -9.1601  -9.1545  -9.1503  -4.0000   0.3953   5.1649
     6.6835   7.2872

          k = 0.6667 0.0000 0.0000 (  3535 PWs)   bands (ev):

    -9.2190  -9.1701  -9.1649  -9.1412  -9.1412  -3.4670   0.2894   4.5081
     4.9333   4.9333

          k =-0.1667-0.8333 0.8333 (  3521 PWs)   bands (ev):

    -9.2267  -9.1678  -9.1675  -9.1392  -9.1370  -2.9717  -0.2388   3.5027
     4.9288   5.0604

          k = 0.0000-0.6667 0.6667 (  3526 PWs)   bands (ev):

    -9.2131  -9.1769  -9.1571  -9.1462  -9.1405  -2.8354  -0.7458   3.5496
     5.4969   5.7876

          k =-1.0000 0.0000 0.0000 (  3540 PWs)   bands (ev):

    -9.2405  -9.1728  -9.1619  -9.1339  -9.1339  -2.8847   0.1509   2.8709
     4.6199   4.6199

          k =-0.3333-0.6667 1.0000 (  3535 PWs)   bands (ev):

    -9.2087  -9.1751  -9.1618  -9.1453  -9.1415  -3.2355  -0.3541   4.3798
     4.8080   6.4855

          k =-0.1667-0.5000 0.8333 (  3546 PWs)   bands (ev):

    -9.2125  -9.1778  -9.1542  -9.1516  -9.1376  -2.8345  -0.7520   4.0780
     4.1916   7.0657

          k =-1.0000 0.3333 0.0000 (  3506 PWs)   bands (ev):

    -9.2267  -9.1706  -9.1635  -9.1440  -9.1339  -2.7647  -0.4007   3.2119
     4.0538   6.1959

!    total energy              =    -190.12668568 Ry
     Harris-Foulkes estimate   =    -190.12668568 Ry
     estimated scf accuracy    <          3.4E-12 Ry

     The total energy is the sum of the following terms:

     one-electron contribution =     -45.32359610 Ry
     hartree contribution      =      34.88373760 Ry
     xc contribution           =     -77.22068413 Ry
     ewald contribution        =    -102.46614306 Ry

     convergence has been achieved in  16 iterations

     Forces acting on atoms (Ry/au):


     negative rho (up, down):  0.157E-01 0.000E+00
     atom    1 type  1   force =     0.00000000    0.00000000    0.00000000
     atom    2 type  2   force =     0.00000000    0.00000000    0.00000000

     Total force =     0.000000     Total SCF correction =     0.000000


     entering subroutine stress ...


     negative rho (up, down):  0.157E-01 0.000E+00
          total   stress  (Ry/bohr**3)                   (kbar)     P=    0.38
   0.00000261   0.00000000   0.00000000          0.38      0.00      0.00
   0.00000000   0.00000261   0.00000000          0.00      0.38      0.00
   0.00000000   0.00000000   0.00000261          0.00      0.00      0.38


     Writing output data file PbTe.save
 
     init_run     :      0.99s CPU      1.22s WALL (       1 calls)
     electrons    :      8.78s CPU      9.61s WALL (       1 calls)
     forces       :      0.18s CPU      0.18s WALL (       1 calls)
     stress       :      0.51s CPU      0.52s WALL (       1 calls)

     Called by init_run:
     wfcinit      :      0.07s CPU      0.20s WALL (       1 calls)
     potinit      :      0.10s CPU      0.11s WALL (       1 calls)

     Called by electrons:
     c_bands      :      5.17s CPU      5.38s WALL (      17 calls)
     sum_band     :      1.63s CPU      1.66s WALL (      17 calls)
     v_of_rho     :      0.49s CPU      0.52s WALL (      17 calls)
     newd         :      0.98s CPU      0.98s WALL (      17 calls)
     mix_rho      :      0.09s CPU      0.11s WALL (      17 calls)

     Called by c_bands:
     init_us_2    :      0.02s CPU      0.04s WALL (     296 calls)
     ccgdiagg     :      4.00s CPU      4.18s WALL (     136 calls)
     wfcrot       :      0.94s CPU      1.05s WALL (     128 calls)

     Called by *cgdiagg:
     h_psi        :      4.01s CPU      4.23s WALL (    4870 calls)
     s_psi        :      0.11s CPU      0.12s WALL (    9612 calls)
     cdiaghg      :      0.02s CPU      0.11s WALL (     128 calls)

     Called by h_psi:
     add_vuspsi   :      0.05s CPU      0.08s WALL (    4870 calls)

     General routines
     calbec       :      0.40s CPU      0.51s WALL (    9764 calls)
     fft          :      0.55s CPU      0.58s WALL (     297 calls)
     ffts         :      0.03s CPU      0.02s WALL (      34 calls)
     fftw         :      3.44s CPU      3.53s WALL (   13452 calls)
     interpolate  :      0.10s CPU      0.09s WALL (      34 calls)
     davcio       :      0.00s CPU      0.03s WALL (     432 calls)
 
     Parallel routines
     fft_scatter  :      1.81s CPU      1.98s WALL (   13783 calls)
 
     PWSCF        :    10.74s CPU        13.10s WALL

 
   This run was terminated on:  17:14:30  27Apr2014            

=------------------------------------------------------------------------------=
   JOB DONE.
=------------------------------------------------------------------------------=
TACC: Shutting down parallel environment.
TACC: Shutdown complete. Exiting.
