TACC: Starting up job 2123919
TACC: Setting up parallel environment for MVAPICH ssh-based mpirun.
TACC: Setup complete. Running job script.
TACC: starting parallel tasks...

     Program PHONON v.5.0.1 starts on 21Aug2014 at 12: 2:52 

     This program is part of the open-source Quantum ESPRESSO suite
     for quantum simulation of materials; please cite
         "P. Giannozzi et al., J. Phys.:Condens. Matter 21 395502 (2009);
          URL http://www.quantum-espresso.org", 
     in publications or presentations arising from this work. More details at
     http://www.quantum-espresso.org/quote.php

     Parallel version (MPI), running on    36 processors
     K-points division:     npool     =    3
     R & G space division:  proc/pool =   12

     Ultrasoft (Vanderbilt) Pseudopotentials

   Info: using nr1, nr2, nr3 values from input

   Info: using nr1s, nr2s, nr3s values from input

     IMPORTANT: XC functional enforced from input :
     Exchange-correlation      = PBESOL ( 1 410 8 0)
     EXX-fraction              =        0.00
     Any further DFT definition will be discarded
     Please, verify this is what you really want

 
     Parallelization info
     --------------------
     sticks:   dense  smooth     PW     G-vecs:    dense   smooth      PW
     Min         217      71     21                 7255     1386     230
     Max         218      72     22                 7257     1405     233
     Sum        2613     859    257                87069    16727    2771
 

     Check: negative/imaginary core charge=   -0.000002    0.000000


     Dynamical matrices for ( 6, 6, 6)  uniform grid of q-points
     (  32q-points):
       N         xq(1)         xq(2)         xq(3) 
       1   0.000000000   0.000000000   0.000000000
       2  -0.241016795   0.139151112   0.096005000
       3  -0.482033590   0.278302223   0.192010000
       4   0.723050384  -0.417453335  -0.288015000
       5   0.000000000   0.278302223   0.192010000
       6  -0.241016795   0.417453335   0.288015000
       7   0.964067179  -0.278302223  -0.192010000
       8   0.723050384  -0.139151112  -0.096005000
       9   0.482033590   0.000000000   0.000000000
      10   0.000000000   0.556604446   0.384020000
      11   1.205083974  -0.139151112  -0.096005000
      12   0.964067179   0.000000000   0.000000000
      13   0.000000000  -0.834906669  -0.576030000
      14   0.000000000   0.000000000   0.288015000
      15  -0.241016795   0.139151112   0.384020000
      16   0.964067179  -0.556604446  -0.096005000
      17   0.723050384  -0.417453335   0.000000000
      18   0.482033590  -0.278302223   0.096005000
      19   0.000000000   0.278302223   0.480025000
      20   1.205083974  -0.417453335   0.000000000
      21   0.964067179  -0.278302223   0.096005000
      22   0.723050384  -0.139151112   0.192010000
      23   0.000000000  -1.113208892  -0.480025000
      24  -0.241016795  -0.974057781  -0.384020000
      25  -0.482033590  -0.834906669  -0.288015000
      26   0.000000000  -0.834906669  -0.288015000
      27   0.000000000   0.000000000   0.576030000
      28   1.205083974  -0.695755558   0.096005000
      29   0.964067179  -0.556604446   0.192010000
      30   0.000000000  -1.391511115  -0.384020000
      31  -0.241016795  -1.252360004  -0.288015000
      32   0.000000000   0.000000000  -0.864045001

     Calculation of q =    0.0000000   0.0000000   0.0000000

                                                                                

     bravais-lattice index     =            0
     lattice parameter (alat)  =      11.3554  a.u.
     unit-cell volume          =     350.8895 (a.u.)^3
     number of atoms/cell      =            2
     number of atomic types    =            2
     kinetic-energy cut-off    =      50.0000  Ry
     charge density cut-off    =     600.0000  Ry
     convergence threshold     =      1.0E-16
     beta                      =       0.7000
     number of iterations used =            4
     Exchange-correlation      = PBESOL ( 1 410 8 0)
     EXX-fraction              =        0.00


     celldm(1)=   11.35536  celldm(2)=    0.00000  celldm(3)=    0.00000
     celldm(4)=    0.00000  celldm(5)=    0.00000  celldm(6)=    0.00000

     crystal axes: (cart. coord. in units of alat)
               a(1) = (  0.0000 -0.3992  0.5787 )  
               a(2) = (  0.3458  0.1996  0.5787 )  
               a(3) = ( -0.3458  0.1996  0.5787 )  

     reciprocal axes: (cart. coord. in units 2 pi/alat)
               b(1) = (  0.0000 -1.6698  0.5760 )  
               b(2) = (  1.4461  0.8349  0.5760 )  
               b(3) = ( -1.4461  0.8349  0.5760 )  


     Atoms inside the unit cell: 

   Cartesian axes

     site n.  atom      mass           positions (alat units)
        1        Ge  72.6300   tau( 1) = (    0.00000    0.00000    0.01051  )
        2        Te 127.6000   tau( 2) = (    0.00000    0.00000    0.84014  )

     Computing dynamical matrix for 
                    q = (   0.0000000   0.0000000   0.0000000 )
 
      7 Sym.Ops. (with q -> -q+G )


     G cutoff = 1959.7184  (   7256 G-vectors)     FFT grid: ( 64, 64, 64)
     G cutoff =  653.2395  (   1392 G-vectors)  smooth grid: ( 36, 36, 36)
     number of k points=   189

     PseudoPot. # 1 for Ge read from file:
     /work/02599/asmiller/pseudo/gbrv/pbe_GBRV/ge_pbe_v1.uspp.F.UPF
     MD5 check sum: 48aaa9fc4bb44e29d138cf8697c43b9a
     Pseudo is Ultrasoft + core correction, Zval = 14.0
     Generated by new atomic code, or converted to UPF format
     Using radial grid of  873 points,  6 beta functions with: 
                l(1) =   0
                l(2) =   0
                l(3) =   1
                l(4) =   1
                l(5) =   2
                l(6) =   2
     Q(r) pseudized with  8 coefficients,  rinner =    1.400   1.400   1.400
                                                       1.400   1.400

     PseudoPot. # 2 for Te read from file:
     /work/02599/asmiller/pseudo/gbrv/pbe_GBRV/te_pbe_v1.uspp.F.UPF
     MD5 check sum: 749656373d74338a59c146dbd702c29e
     Pseudo is Ultrasoft + core correction, Zval =  6.0
     Generated by new atomic code, or converted to UPF format
     Using radial grid of  891 points,  5 beta functions with: 
                l(1) =   0
                l(2) =   0
                l(3) =   1
                l(4) =   1
                l(5) =   2
     Q(r) pseudized with  6 coefficients,  rinner =    1.800   1.800   1.800
                                                       1.800   1.800


     Electric field:
     Dielectric constant
     Born effective charges in two ways 


     Atomic displacements:
     There are   4 irreducible representations

     Representation     1      1 modes -A_1  L_1 To be done

     Representation     2      1 modes -A_1  L_1 To be done

     Representation     3      2 modes -E    L_3 To be done

     Representation     4      2 modes -E    L_3 To be done



     Alpha used in Ewald sum =   2.8000
     PHONON       :     6.62s CPU         8.44s WALL


     Electric Fields Calculation

      iter #   1 total cpu time :    40.1 secs   av.it.:   6.8
      thresh= 0.100E-01 alpha_mix =  0.700 |ddv_scf|^2 =  0.200E-06

      iter #   2 total cpu time :    55.8 secs   av.it.:  16.3
      thresh= 0.447E-04 alpha_mix =  0.700 |ddv_scf|^2 =  0.100E-06

      iter #   3 total cpu time :    70.3 secs   av.it.:  14.8
      thresh= 0.316E-04 alpha_mix =  0.700 |ddv_scf|^2 =  0.679E-09

      iter #   4 total cpu time :    85.9 secs   av.it.:  16.3
      thresh= 0.261E-05 alpha_mix =  0.700 |ddv_scf|^2 =  0.289E-10

      iter #   5 total cpu time :   101.6 secs   av.it.:  16.3
      thresh= 0.538E-06 alpha_mix =  0.700 |ddv_scf|^2 =  0.114E-11

      iter #   6 total cpu time :   116.8 secs   av.it.:  15.4
      thresh= 0.107E-06 alpha_mix =  0.700 |ddv_scf|^2 =  0.404E-13

      iter #   7 total cpu time :   132.3 secs   av.it.:  15.8
      thresh= 0.201E-07 alpha_mix =  0.700 |ddv_scf|^2 =  0.131E-14

      iter #   8 total cpu time :   148.1 secs   av.it.:  16.3
      thresh= 0.362E-08 alpha_mix =  0.700 |ddv_scf|^2 =  0.151E-16

     End of electric fields calculation

          Dielectric constant in cartesian axis 

          (      65.550554901       0.000000000       0.000000000 )
          (       0.000000000      65.550555045       0.000000000 )
          (       0.000000000       0.000000000      75.775104560 )

          Effective charges (d Force / dE) in cartesian axis

           atom      1   Ge 
      Ex  (        6.75718        0.00000        0.00000 )
      Ey  (        0.00000        6.75718        0.00000 )
      Ez  (        0.00000        0.00000        4.86826 )
           atom      2   Te 
      Ex  (       -7.19396        0.00000        0.00000 )
      Ey  (        0.00000       -7.19396        0.00000 )
      Ez  (        0.00000        0.00000       -4.90079 )


     Representation #  1 mode #   1

     Self-consistent Calculation

      iter #   1 total cpu time :   156.7 secs   av.it.:   8.5
      thresh= 0.100E-01 alpha_mix =  0.700 |ddv_scf|^2 =  0.741E-05

      iter #   2 total cpu time :   161.2 secs   av.it.:  13.1
      thresh= 0.272E-03 alpha_mix =  0.700 |ddv_scf|^2 =  0.830E-06

      iter #   3 total cpu time :   165.7 secs   av.it.:  13.0
      thresh= 0.911E-04 alpha_mix =  0.700 |ddv_scf|^2 =  0.745E-08

      iter #   4 total cpu time :   170.4 secs   av.it.:  13.5
      thresh= 0.863E-05 alpha_mix =  0.700 |ddv_scf|^2 =  0.640E-09

      iter #   5 total cpu time :   175.1 secs   av.it.:  13.9
      thresh= 0.253E-05 alpha_mix =  0.700 |ddv_scf|^2 =  0.147E-09

      iter #   6 total cpu time :   179.6 secs   av.it.:  12.9
      thresh= 0.121E-05 alpha_mix =  0.700 |ddv_scf|^2 =  0.126E-11

      iter #   7 total cpu time :   184.2 secs   av.it.:  13.2
      thresh= 0.112E-06 alpha_mix =  0.700 |ddv_scf|^2 =  0.896E-13

      iter #   8 total cpu time :   189.1 secs   av.it.:  13.1
      thresh= 0.299E-07 alpha_mix =  0.700 |ddv_scf|^2 =  0.651E-15

      iter #   9 total cpu time :   193.6 secs   av.it.:  12.9
      thresh= 0.255E-08 alpha_mix =  0.700 |ddv_scf|^2 =  0.267E-16

     End of self-consistent calculation

     Convergence has been achieved 


     Representation #  2 mode #   2

     Self-consistent Calculation

      iter #   1 total cpu time :   196.8 secs   av.it.:   5.0
      thresh= 0.100E-01 alpha_mix =  0.700 |ddv_scf|^2 =  0.546E-07

      iter #   2 total cpu time :   201.4 secs   av.it.:  13.2
      thresh= 0.234E-04 alpha_mix =  0.700 |ddv_scf|^2 =  0.746E-08

      iter #   3 total cpu time :   206.0 secs   av.it.:  13.4
      thresh= 0.864E-05 alpha_mix =  0.700 |ddv_scf|^2 =  0.947E-09

      iter #   4 total cpu time :   210.6 secs   av.it.:  13.1
      thresh= 0.308E-05 alpha_mix =  0.700 |ddv_scf|^2 =  0.117E-09

      iter #   5 total cpu time :   215.1 secs   av.it.:  13.1
      thresh= 0.108E-05 alpha_mix =  0.700 |ddv_scf|^2 =  0.290E-12

      iter #   6 total cpu time :   219.6 secs   av.it.:  12.9
      thresh= 0.538E-07 alpha_mix =  0.700 |ddv_scf|^2 =  0.144E-13

      iter #   7 total cpu time :   224.3 secs   av.it.:  13.6
      thresh= 0.120E-07 alpha_mix =  0.700 |ddv_scf|^2 =  0.433E-15

      iter #   8 total cpu time :   229.0 secs   av.it.:  13.7
      thresh= 0.208E-08 alpha_mix =  0.700 |ddv_scf|^2 =  0.693E-17

     End of self-consistent calculation

     Convergence has been achieved 


     Representation #  3 modes #   3  4

     Self-consistent Calculation

      iter #   1 total cpu time :   234.1 secs   av.it.:   4.9
      thresh= 0.100E-01 alpha_mix =  0.700 |ddv_scf|^2 =  0.118E-07

      iter #   2 total cpu time :   243.8 secs   av.it.:  14.3
      thresh= 0.109E-04 alpha_mix =  0.700 |ddv_scf|^2 =  0.982E-09

      iter #   3 total cpu time :   253.3 secs   av.it.:  14.0
      thresh= 0.313E-05 alpha_mix =  0.700 |ddv_scf|^2 =  0.683E-10

      iter #   4 total cpu time :   262.9 secs   av.it.:  14.1
      thresh= 0.826E-06 alpha_mix =  0.700 |ddv_scf|^2 =  0.187E-12

      iter #   5 total cpu time :   272.8 secs   av.it.:  14.7
      thresh= 0.433E-07 alpha_mix =  0.700 |ddv_scf|^2 =  0.120E-13

      iter #   6 total cpu time :   282.7 secs   av.it.:  14.8
      thresh= 0.109E-07 alpha_mix =  0.700 |ddv_scf|^2 =  0.596E-16

     End of self-consistent calculation

     Convergence has been achieved 


     Representation #  4 modes #   5  6

     Self-consistent Calculation

      iter #   1 total cpu time :   290.2 secs   av.it.:   8.4
      thresh= 0.100E-01 alpha_mix =  0.700 |ddv_scf|^2 =  0.182E-05

      iter #   2 total cpu time :   299.8 secs   av.it.:  14.1
      thresh= 0.135E-03 alpha_mix =  0.700 |ddv_scf|^2 =  0.196E-06

      iter #   3 total cpu time :   309.4 secs   av.it.:  14.1
      thresh= 0.443E-04 alpha_mix =  0.700 |ddv_scf|^2 =  0.178E-08

      iter #   4 total cpu time :   319.4 secs   av.it.:  15.0
      thresh= 0.422E-05 alpha_mix =  0.700 |ddv_scf|^2 =  0.764E-10

      iter #   5 total cpu time :   329.4 secs   av.it.:  15.0
      thresh= 0.874E-06 alpha_mix =  0.700 |ddv_scf|^2 =  0.759E-12

      iter #   6 total cpu time :   338.9 secs   av.it.:  14.0
      thresh= 0.871E-07 alpha_mix =  0.700 |ddv_scf|^2 =  0.116E-13

      iter #   7 total cpu time :   348.3 secs   av.it.:  13.9
      thresh= 0.108E-07 alpha_mix =  0.700 |ddv_scf|^2 =  0.233E-15

      iter #   8 total cpu time :   358.1 secs   av.it.:  14.6
      thresh= 0.153E-08 alpha_mix =  0.700 |ddv_scf|^2 =  0.254E-17

     End of self-consistent calculation

     Convergence has been achieved 
 
     Number of q in the star =    1
     List of q in the star:
          1   0.000000000   0.000000000   0.000000000

          Dielectric constant in cartesian axis 

          (      65.550554901       0.000000000       0.000000000 )
          (       0.000000000      65.550555045       0.000000000 )
          (       0.000000000       0.000000000      75.775104560 )

          Effective charges (d Force / dE) in cartesian axis

           atom      1   Ge 
      Ex  (        6.75718        0.00000        0.00000 )
      Ey  (        0.00000        6.75718        0.00000 )
      Ez  (        0.00000        0.00000        4.86826 )
           atom      2   Te 
      Ex  (       -7.19396        0.00000        0.00000 )
      Ey  (        0.00000       -7.19396        0.00000 )
      Ez  (        0.00000        0.00000       -4.90079 )

          Effective charges (d P / du) in cartesian axis 

           atom      1   Ge 
      Px  (        7.00954        0.00000        0.00000 )
      Py  (        0.00000        7.00954        0.00000 )
      Pz  (        0.00000        0.00000        4.82028 )
           atom      2   Te 
      Px  (       -6.95187        0.00000        0.00000 )
      Py  (        0.00000       -6.95187        0.00000 )
      Pz  (        0.00000        0.00000       -4.96224 )

     Diagonalizing the dynamical matrix

     q = (    0.000000000   0.000000000   0.000000000 ) 

 **************************************************************************
     omega( 1) =       0.047281 [THz] =       1.577114 [cm-1]
     omega( 2) =       0.047281 [THz] =       1.577114 [cm-1]
     omega( 3) =       0.079060 [THz] =       2.637162 [cm-1]
     omega( 4) =       2.152452 [THz] =      71.798061 [cm-1]
     omega( 5) =       2.152452 [THz] =      71.798061 [cm-1]
     omega( 6) =       3.513131 [THz] =     117.185437 [cm-1]
 **************************************************************************

     Mode symmetry, C_3v (3m)   point group:

     omega(  1 -  2) =          1.6  [cm-1]   --> E    L_3        I+R
     omega(  3 -  3) =          2.6  [cm-1]   --> A_1  L_1        I+R
     omega(  4 -  5) =         71.8  [cm-1]   --> E    L_3        I+R
     omega(  6 -  6) =        117.2  [cm-1]   --> A_1  L_1        I+R

 **************************************************************************

     Calculation of q =   -0.2410168   0.1391511   0.0960050
 
     Parallelization info
     --------------------
     sticks:   dense  smooth     PW     G-vecs:    dense   smooth      PW
     Min         217      71     22                 7255     1385     245
     Max         218      72     23                 7257     1406     247
     Sum        2613     859    273                87069    16727    2951
 


     bravais-lattice index     =            0
     lattice parameter (alat)  =      11.3554  a.u.
     unit-cell volume          =     350.8895 (a.u.)^3
     number of atoms/cell      =            2
     number of atomic types    =            2
     number of electrons       =        20.00
     number of Kohn-Sham states=           10
     kinetic-energy cutoff     =      50.0000  Ry
     charge density cutoff     =     600.0000  Ry
     Exchange-correlation      = PBESOL ( 1 410 8 0)
     EXX-fraction              =        0.00

     celldm(1)=  11.355364  celldm(2)=   0.000000  celldm(3)=   0.000000
     celldm(4)=   0.000000  celldm(5)=   0.000000  celldm(6)=   0.000000

     crystal axes: (cart. coord. in units of alat)
               a(1) = (   0.000000  -0.399246   0.578674 )  
               a(2) = (   0.345757   0.199623   0.578674 )  
               a(3) = (  -0.345757   0.199623   0.578674 )  

     reciprocal axes: (cart. coord. in units 2 pi/alat)
               b(1) = (  0.000000 -1.669813  0.576030 )  
               b(2) = (  1.446101  0.834907  0.576030 )  
               b(3) = ( -1.446101  0.834907  0.576030 )  


     PseudoPot. # 1 for Ge read from file:
     /work/02599/asmiller/pseudo/gbrv/pbe_GBRV/ge_pbe_v1.uspp.F.UPF
     MD5 check sum: 48aaa9fc4bb44e29d138cf8697c43b9a
     Pseudo is Ultrasoft + core correction, Zval = 14.0
     Generated by new atomic code, or converted to UPF format
     Using radial grid of  873 points,  6 beta functions with: 
                l(1) =   0
                l(2) =   0
                l(3) =   1
                l(4) =   1
                l(5) =   2
                l(6) =   2
     Q(r) pseudized with  8 coefficients,  rinner =    1.400   1.400   1.400
                                                       1.400   1.400

     PseudoPot. # 2 for Te read from file:
     /work/02599/asmiller/pseudo/gbrv/pbe_GBRV/te_pbe_v1.uspp.F.UPF
     MD5 check sum: 749656373d74338a59c146dbd702c29e
     Pseudo is Ultrasoft + core correction, Zval =  6.0
     Generated by new atomic code, or converted to UPF format
     Using radial grid of  891 points,  5 beta functions with: 
                l(1) =   0
                l(2) =   0
                l(3) =   1
                l(4) =   1
                l(5) =   2
     Q(r) pseudized with  6 coefficients,  rinner =    1.800   1.800   1.800
                                                       1.800   1.800

     atomic species   valence    mass     pseudopotential
        Ge            14.00    72.63000     Ge( 1.00)
        Te             6.00   127.60000     Te( 1.00)

      6 Sym. Ops. (no inversion) found



   Cartesian axes

     site n.     atom                  positions (alat units)
         1           Ge  tau(   1) = (   0.0000000   0.0000000   0.0105077  )
         2           Te  tau(   2) = (   0.0000000   0.0000000   0.8401424  )

     number of k points=  1872

     Number of k-points >= 100: set verbosity='high' to print them.

     Dense  grid:    87069 G-vectors     FFT dimensions: (  64,  64,  64)

     Smooth grid:    16727 G-vectors     FFT dimensions: (  36,  36,  36)

     Largest allocated arrays     est. size (Mb)     dimensions
        Kohn-Sham Wavefunctions         0.03 Mb     (    184,   10)
        NL pseudopotentials             0.09 Mb     (    184,   31)
        Each V/rho on FFT grid          0.38 Mb     (  24576)
        Each G-vector array             0.06 Mb     (   7256)
        G-vector shells                 0.05 Mb     (   6263)
     Largest temporary arrays     est. size (Mb)     dimensions
        Auxiliary wavefunctions         0.11 Mb     (    184,   40)
        Each subspace H/S matrix        0.02 Mb     (  40,  40)
        Each <psi_i|beta_j> matrix      0.00 Mb     (     31,   10)

     Check: negative/imaginary core charge=   -0.000002    0.000000

     The potential is recalculated from file :
     ./_ph0/GeTe_d.save/charge-density.dat

     Starting wfc are   13 atomic wfcs

     total cpu time spent up to now is        1.1 secs

     per-process dynamical memory:    57.6 Mb

     Band Structure Calculation
     Davidson diagonalization with overlap

     ethr =  5.00E-11,  avg # of iterations = 16.1

     total cpu time spent up to now is       52.8 secs

     End of band structure calculation

     Number of k-points >= 100: set verbosity='high' to print the bands.

     Writing output data file GeTe_d.save

                                                                                

     bravais-lattice index     =            0
     lattice parameter (alat)  =      11.3554  a.u.
     unit-cell volume          =     350.8895 (a.u.)^3
     number of atoms/cell      =            2
     number of atomic types    =            2
     kinetic-energy cut-off    =      50.0000  Ry
     charge density cut-off    =     600.0000  Ry
     convergence threshold     =      1.0E-16
     beta                      =       0.7000
     number of iterations used =            4
     Exchange-correlation      = PBESOL ( 1 410 8 0)
     EXX-fraction              =        0.00


     celldm(1)=   11.35536  celldm(2)=    0.00000  celldm(3)=    0.00000
     celldm(4)=    0.00000  celldm(5)=    0.00000  celldm(6)=    0.00000

     crystal axes: (cart. coord. in units of alat)
               a(1) = (  0.0000 -0.3992  0.5787 )  
               a(2) = (  0.3458  0.1996  0.5787 )  
               a(3) = ( -0.3458  0.1996  0.5787 )  

     reciprocal axes: (cart. coord. in units 2 pi/alat)
               b(1) = (  0.0000 -1.6698  0.5760 )  
               b(2) = (  1.4461  0.8349  0.5760 )  
               b(3) = ( -1.4461  0.8349  0.5760 )  


     Atoms inside the unit cell: 

   Cartesian axes

     site n.  atom      mass           positions (alat units)
        1        Ge  72.6300   tau( 1) = (    0.00000    0.00000    0.01051  )
        2        Te 127.6000   tau( 2) = (    0.00000    0.00000    0.84014  )

     Computing dynamical matrix for 
                    q = (  -0.2410168   0.1391511   0.0960050 )
 
      2 Sym.Ops. (no q -> -q+G )


     G cutoff = 1959.7184  (   7256 G-vectors)     FFT grid: ( 64, 64, 64)
     G cutoff =  653.2395  (   1390 G-vectors)  smooth grid: ( 36, 36, 36)
     number of k points=  1872

     PseudoPot. # 1 for Ge read from file:
     /work/02599/asmiller/pseudo/gbrv/pbe_GBRV/ge_pbe_v1.uspp.F.UPF
     MD5 check sum: 48aaa9fc4bb44e29d138cf8697c43b9a
     Pseudo is Ultrasoft + core correction, Zval = 14.0
     Generated by new atomic code, or converted to UPF format
     Using radial grid of  873 points,  6 beta functions with: 
                l(1) =   0
                l(2) =   0
                l(3) =   1
                l(4) =   1
                l(5) =   2
                l(6) =   2
     Q(r) pseudized with  8 coefficients,  rinner =    1.400   1.400   1.400
                                                       1.400   1.400

     PseudoPot. # 2 for Te read from file:
     /work/02599/asmiller/pseudo/gbrv/pbe_GBRV/te_pbe_v1.uspp.F.UPF
     MD5 check sum: 749656373d74338a59c146dbd702c29e
     Pseudo is Ultrasoft + core correction, Zval =  6.0
     Generated by new atomic code, or converted to UPF format
     Using radial grid of  891 points,  5 beta functions with: 
                l(1) =   0
                l(2) =   0
                l(3) =   1
                l(4) =   1
                l(5) =   2
     Q(r) pseudized with  6 coefficients,  rinner =    1.800   1.800   1.800
                                                       1.800   1.800


     Atomic displacements:
     There are   6 irreducible representations

     Representation     1      1 modes -A' To be done

     Representation     2      1 modes -A' To be done

     Representation     3      1 modes -A' To be done

     Representation     4      1 modes -A' To be done

     Representation     5      1 modes -A'' To be done

     Representation     6      1 modes -A'' To be done



     Alpha used in Ewald sum =   2.8000
     PHONON       :  6m46.31s CPU     7m 2.57s WALL



     Representation #  1 mode #   1

     Self-consistent Calculation

      iter #   1 total cpu time :   438.4 secs   av.it.:   8.7
      thresh= 0.100E-01 alpha_mix =  0.700 |ddv_scf|^2 =  0.374E-02

      iter #   2 total cpu time :   457.5 secs   av.it.:  11.3
      thresh= 0.611E-02 alpha_mix =  0.700 |ddv_scf|^2 =  0.714E+00

      iter #   3 total cpu time :   475.4 secs   av.it.:  10.5
      thresh= 0.100E-01 alpha_mix =  0.700 |ddv_scf|^2 =  0.126E-05

      iter #   4 total cpu time :   497.6 secs   av.it.:  13.7
      thresh= 0.112E-03 alpha_mix =  0.700 |ddv_scf|^2 =  0.948E-06

      iter #   5 total cpu time :   518.1 secs   av.it.:  12.5
      thresh= 0.974E-04 alpha_mix =  0.700 |ddv_scf|^2 =  0.118E-07

      iter #   6 total cpu time :   539.7 secs   av.it.:  13.3
      thresh= 0.109E-04 alpha_mix =  0.700 |ddv_scf|^2 =  0.111E-06

      iter #   7 total cpu time :   553.4 secs   av.it.:   7.4
      thresh= 0.334E-04 alpha_mix =  0.700 |ddv_scf|^2 =  0.615E-08

      iter #   8 total cpu time :   572.4 secs   av.it.:  11.4
      thresh= 0.784E-05 alpha_mix =  0.700 |ddv_scf|^2 =  0.124E-10

      iter #   9 total cpu time :   593.1 secs   av.it.:  12.6
      thresh= 0.353E-06 alpha_mix =  0.700 |ddv_scf|^2 =  0.851E-11

      iter #  10 total cpu time :   612.0 secs   av.it.:  11.3
      thresh= 0.292E-06 alpha_mix =  0.700 |ddv_scf|^2 =  0.530E-12

      iter #  11 total cpu time :   630.0 secs   av.it.:  10.6
      thresh= 0.728E-07 alpha_mix =  0.700 |ddv_scf|^2 =  0.194E-14

      iter #  12 total cpu time :   651.9 secs   av.it.:  13.5
      thresh= 0.441E-08 alpha_mix =  0.700 |ddv_scf|^2 =  0.876E-15

      iter #  13 total cpu time :   671.4 secs   av.it.:  11.7
      thresh= 0.296E-08 alpha_mix =  0.700 |ddv_scf|^2 =  0.142E-13

      iter #  14 total cpu time :   687.2 secs   av.it.:   9.0
      thresh= 0.119E-07 alpha_mix =  0.700 |ddv_scf|^2 =  0.167E-16

     End of self-consistent calculation

     Convergence has been achieved 


     Representation #  2 mode #   2

     Self-consistent Calculation

      iter #   1 total cpu time :   699.5 secs   av.it.:   6.0
      thresh= 0.100E-01 alpha_mix =  0.700 |ddv_scf|^2 =  0.222E-02

      iter #   2 total cpu time :   718.5 secs   av.it.:  11.2
      thresh= 0.471E-02 alpha_mix =  0.700 |ddv_scf|^2 =  0.423E+00

      iter #   3 total cpu time :   736.2 secs   av.it.:  10.1
      thresh= 0.100E-01 alpha_mix =  0.700 |ddv_scf|^2 =  0.463E-06

      iter #   4 total cpu time :   756.3 secs   av.it.:  12.2
      thresh= 0.680E-04 alpha_mix =  0.700 |ddv_scf|^2 =  0.221E-07

      iter #   5 total cpu time :   777.6 secs   av.it.:  13.1
      thresh= 0.149E-04 alpha_mix =  0.700 |ddv_scf|^2 =  0.506E-08

      iter #   6 total cpu time :   796.0 secs   av.it.:  11.0
      thresh= 0.711E-05 alpha_mix =  0.700 |ddv_scf|^2 =  0.316E-08

      iter #   7 total cpu time :   810.3 secs   av.it.:   7.9
      thresh= 0.562E-05 alpha_mix =  0.700 |ddv_scf|^2 =  0.401E-09

      iter #   8 total cpu time :   829.0 secs   av.it.:  11.2
      thresh= 0.200E-05 alpha_mix =  0.700 |ddv_scf|^2 =  0.331E-10

      iter #   9 total cpu time :   847.9 secs   av.it.:  11.3
      thresh= 0.576E-06 alpha_mix =  0.700 |ddv_scf|^2 =  0.528E-12

      iter #  10 total cpu time :   865.3 secs   av.it.:  10.3
      thresh= 0.727E-07 alpha_mix =  0.700 |ddv_scf|^2 =  0.166E-13

      iter #  11 total cpu time :   883.4 secs   av.it.:  10.7
      thresh= 0.129E-07 alpha_mix =  0.700 |ddv_scf|^2 =  0.900E-15

      iter #  12 total cpu time :   902.7 secs   av.it.:  11.5
      thresh= 0.300E-08 alpha_mix =  0.700 |ddv_scf|^2 =  0.756E-16

     End of self-consistent calculation

     Convergence has been achieved 


     Representation #  3 mode #   3

     Self-consistent Calculation

      iter #   1 total cpu time :   913.8 secs   av.it.:   5.2
      thresh= 0.100E-01 alpha_mix =  0.700 |ddv_scf|^2 =  0.456E-04

      iter #   2 total cpu time :   932.7 secs   av.it.:  11.3
      thresh= 0.675E-03 alpha_mix =  0.700 |ddv_scf|^2 =  0.870E-02

      iter #   3 total cpu time :   945.9 secs   av.it.:   7.0
      thresh= 0.933E-02 alpha_mix =  0.700 |ddv_scf|^2 =  0.110E-07

      iter #   4 total cpu time :   968.4 secs   av.it.:  14.0
      thresh= 0.105E-04 alpha_mix =  0.700 |ddv_scf|^2 =  0.729E-08

      iter #   5 total cpu time :   989.1 secs   av.it.:  12.6
      thresh= 0.854E-05 alpha_mix =  0.700 |ddv_scf|^2 =  0.305E-08

      iter #   6 total cpu time :  1005.6 secs   av.it.:   9.5
      thresh= 0.552E-05 alpha_mix =  0.700 |ddv_scf|^2 =  0.108E-07

      iter #   7 total cpu time :  1022.8 secs   av.it.:  10.0
      thresh= 0.104E-04 alpha_mix =  0.700 |ddv_scf|^2 =  0.818E-11

      iter #   8 total cpu time :  1045.7 secs   av.it.:  14.0
      thresh= 0.286E-06 alpha_mix =  0.700 |ddv_scf|^2 =  0.196E-10

      iter #   9 total cpu time :  1064.7 secs   av.it.:  11.4
      thresh= 0.442E-06 alpha_mix =  0.700 |ddv_scf|^2 =  0.130E-10

      iter #  10 total cpu time :  1083.3 secs   av.it.:  11.2
      thresh= 0.361E-06 alpha_mix =  0.700 |ddv_scf|^2 =  0.216E-12

      iter #  11 total cpu time :  1103.9 secs   av.it.:  12.5
      thresh= 0.465E-07 alpha_mix =  0.700 |ddv_scf|^2 =  0.190E-12

      iter #  12 total cpu time :  1122.9 secs   av.it.:  11.4
      thresh= 0.436E-07 alpha_mix =  0.700 |ddv_scf|^2 =  0.691E-12

      iter #  13 total cpu time :  1137.8 secs   av.it.:   8.4
      thresh= 0.831E-07 alpha_mix =  0.700 |ddv_scf|^2 =  0.528E-14

      iter #  14 total cpu time :  1156.8 secs   av.it.:  11.4
      thresh= 0.726E-08 alpha_mix =  0.700 |ddv_scf|^2 =  0.662E-16

     End of self-consistent calculation

     Convergence has been achieved 


     Representation #  4 mode #   4

     Self-consistent Calculation

      iter #   1 total cpu time :  1173.3 secs   av.it.:   9.0
      thresh= 0.100E-01 alpha_mix =  0.700 |ddv_scf|^2 =  0.956E-02

      iter #   2 total cpu time :  1192.3 secs   av.it.:  11.3
      thresh= 0.978E-02 alpha_mix =  0.700 |ddv_scf|^2 =  0.183E+01

      iter #   3 total cpu time :  1211.1 secs   av.it.:  11.2
      thresh= 0.100E-01 alpha_mix =  0.700 |ddv_scf|^2 =  0.328E-05

      iter #   4 total cpu time :  1232.7 secs   av.it.:  13.3
      thresh= 0.181E-03 alpha_mix =  0.700 |ddv_scf|^2 =  0.171E-05

      iter #   5 total cpu time :  1253.2 secs   av.it.:  12.5
      thresh= 0.131E-03 alpha_mix =  0.700 |ddv_scf|^2 =  0.276E-07

      iter #   6 total cpu time :  1274.3 secs   av.it.:  12.8
      thresh= 0.166E-04 alpha_mix =  0.700 |ddv_scf|^2 =  0.630E-06

      iter #   7 total cpu time :  1289.5 secs   av.it.:   8.6
      thresh= 0.794E-04 alpha_mix =  0.700 |ddv_scf|^2 =  0.914E-08

      iter #   8 total cpu time :  1308.0 secs   av.it.:  11.1
      thresh= 0.956E-05 alpha_mix =  0.700 |ddv_scf|^2 =  0.484E-10

      iter #   9 total cpu time :  1327.3 secs   av.it.:  11.6
      thresh= 0.696E-06 alpha_mix =  0.700 |ddv_scf|^2 =  0.977E-11

      iter #  10 total cpu time :  1346.4 secs   av.it.:  11.4
      thresh= 0.313E-06 alpha_mix =  0.700 |ddv_scf|^2 =  0.231E-12

      iter #  11 total cpu time :  1364.9 secs   av.it.:  11.0
      thresh= 0.481E-07 alpha_mix =  0.700 |ddv_scf|^2 =  0.306E-14

      iter #  12 total cpu time :  1385.8 secs   av.it.:  12.7
      thresh= 0.553E-08 alpha_mix =  0.700 |ddv_scf|^2 =  0.772E-15

      iter #  13 total cpu time :  1405.8 secs   av.it.:  12.1
      thresh= 0.278E-08 alpha_mix =  0.700 |ddv_scf|^2 =  0.142E-13

      iter #  14 total cpu time :  1421.5 secs   av.it.:   9.0
      thresh= 0.119E-07 alpha_mix =  0.700 |ddv_scf|^2 =  0.560E-16

     End of self-consistent calculation

     Convergence has been achieved 


     Representation #  5 mode #   5

     Self-consistent Calculation

      iter #   1 total cpu time :  1432.3 secs   av.it.:   5.0
      thresh= 0.100E-01 alpha_mix =  0.700 |ddv_scf|^2 =  0.527E-07

      iter #   2 total cpu time :  1454.1 secs   av.it.:  13.4
      thresh= 0.230E-04 alpha_mix =  0.700 |ddv_scf|^2 =  0.414E-08

      iter #   3 total cpu time :  1476.1 secs   av.it.:  13.5
      thresh= 0.644E-05 alpha_mix =  0.700 |ddv_scf|^2 =  0.272E-09

      iter #   4 total cpu time :  1498.1 secs   av.it.:  13.5
      thresh= 0.165E-05 alpha_mix =  0.700 |ddv_scf|^2 =  0.142E-11

      iter #   5 total cpu time :  1520.4 secs   av.it.:  13.8
      thresh= 0.119E-06 alpha_mix =  0.700 |ddv_scf|^2 =  0.827E-13

      iter #   6 total cpu time :  1542.8 secs   av.it.:  13.8
      thresh= 0.288E-07 alpha_mix =  0.700 |ddv_scf|^2 =  0.182E-14

      iter #   7 total cpu time :  1565.0 secs   av.it.:  13.8
      thresh= 0.427E-08 alpha_mix =  0.700 |ddv_scf|^2 =  0.296E-16

     End of self-consistent calculation

     Convergence has been achieved 


     Representation #  6 mode #   6

     Self-consistent Calculation

      iter #   1 total cpu time :  1580.7 secs   av.it.:   8.4
      thresh= 0.100E-01 alpha_mix =  0.700 |ddv_scf|^2 =  0.744E-05

      iter #   2 total cpu time :  1602.2 secs   av.it.:  13.2
      thresh= 0.273E-03 alpha_mix =  0.700 |ddv_scf|^2 =  0.840E-06

      iter #   3 total cpu time :  1623.5 secs   av.it.:  13.1
      thresh= 0.916E-04 alpha_mix =  0.700 |ddv_scf|^2 =  0.750E-08

      iter #   4 total cpu time :  1646.2 secs   av.it.:  13.9
      thresh= 0.866E-05 alpha_mix =  0.700 |ddv_scf|^2 =  0.322E-09

      iter #   5 total cpu time :  1668.2 secs   av.it.:  13.5
      thresh= 0.179E-05 alpha_mix =  0.700 |ddv_scf|^2 =  0.358E-11

      iter #   6 total cpu time :  1690.0 secs   av.it.:  13.4
      thresh= 0.189E-06 alpha_mix =  0.700 |ddv_scf|^2 =  0.123E-12

      iter #   7 total cpu time :  1710.7 secs   av.it.:  12.6
      thresh= 0.350E-07 alpha_mix =  0.700 |ddv_scf|^2 =  0.187E-14

      iter #   8 total cpu time :  1733.0 secs   av.it.:  13.8
      thresh= 0.432E-08 alpha_mix =  0.700 |ddv_scf|^2 =  0.188E-16

     End of self-consistent calculation

     Convergence has been achieved 
 
     Number of q in the star =    3
     List of q in the star:
          1  -0.241016795   0.139151112   0.096005000
          2   0.241016795   0.139151112   0.096005000
          3   0.000000000  -0.278302223   0.096005000
     In addition there is the -q list: 
          1   0.241016795  -0.139151112  -0.096005000
          2  -0.241016795  -0.139151112  -0.096005000
          3   0.000000000   0.278302223  -0.096005000

     Diagonalizing the dynamical matrix

     q = (   -0.241016795   0.139151112   0.096005000 ) 

 **************************************************************************
     omega( 1) =       1.224046 [THz] =      40.829790 [cm-1]
     omega( 2) =       1.246079 [THz] =      41.564710 [cm-1]
     omega( 3) =       1.647513 [THz] =      54.955113 [cm-1]
     omega( 4) =       3.584911 [THz] =     119.579756 [cm-1]
     omega( 5) =       3.960753 [THz] =     132.116486 [cm-1]
     omega( 6) =       4.927608 [THz] =     164.367313 [cm-1]
 **************************************************************************

     Mode symmetry, C_s (m)     point group:

     omega(  1 -  1) =         40.8  [cm-1]   --> A''                
     omega(  2 -  2) =         41.6  [cm-1]   --> A'                 
     omega(  3 -  3) =         55.0  [cm-1]   --> A'                 
     omega(  4 -  4) =        119.6  [cm-1]   --> A''                
     omega(  5 -  5) =        132.1  [cm-1]   --> A'                 
     omega(  6 -  6) =        164.4  [cm-1]   --> A'                 

 **************************************************************************

     Calculation of q =   -0.4820336   0.2783022   0.1920100
 
     Parallelization info
     --------------------
     sticks:   dense  smooth     PW     G-vecs:    dense   smooth      PW
     Min         217      71     23                 7255     1384     252
     Max         218      72     24                 7257     1406     254
     Sum        2613     859    277                87069    16727    3035
 


     bravais-lattice index     =            0
     lattice parameter (alat)  =      11.3554  a.u.
     unit-cell volume          =     350.8895 (a.u.)^3
     number of atoms/cell      =            2
     number of atomic types    =            2
     number of electrons       =        20.00
     number of Kohn-Sham states=           10
     kinetic-energy cutoff     =      50.0000  Ry
     charge density cutoff     =     600.0000  Ry
     Exchange-correlation      = PBESOL ( 1 410 8 0)
     EXX-fraction              =        0.00

     celldm(1)=  11.355364  celldm(2)=   0.000000  celldm(3)=   0.000000
     celldm(4)=   0.000000  celldm(5)=   0.000000  celldm(6)=   0.000000

     crystal axes: (cart. coord. in units of alat)
               a(1) = (   0.000000  -0.399246   0.578674 )  
               a(2) = (   0.345757   0.199623   0.578674 )  
               a(3) = (  -0.345757   0.199623   0.578674 )  

     reciprocal axes: (cart. coord. in units 2 pi/alat)
               b(1) = (  0.000000 -1.669813  0.576030 )  
               b(2) = (  1.446101  0.834907  0.576030 )  
               b(3) = ( -1.446101  0.834907  0.576030 )  


     PseudoPot. # 1 for Ge read from file:
     /work/02599/asmiller/pseudo/gbrv/pbe_GBRV/ge_pbe_v1.uspp.F.UPF
     MD5 check sum: 48aaa9fc4bb44e29d138cf8697c43b9a
     Pseudo is Ultrasoft + core correction, Zval = 14.0
     Generated by new atomic code, or converted to UPF format
     Using radial grid of  873 points,  6 beta functions with: 
                l(1) =   0
                l(2) =   0
                l(3) =   1
                l(4) =   1
                l(5) =   2
                l(6) =   2
     Q(r) pseudized with  8 coefficients,  rinner =    1.400   1.400   1.400
                                                       1.400   1.400

     PseudoPot. # 2 for Te read from file:
     /work/02599/asmiller/pseudo/gbrv/pbe_GBRV/te_pbe_v1.uspp.F.UPF
     MD5 check sum: 749656373d74338a59c146dbd702c29e
     Pseudo is Ultrasoft + core correction, Zval =  6.0
     Generated by new atomic code, or converted to UPF format
     Using radial grid of  891 points,  5 beta functions with: 
                l(1) =   0
                l(2) =   0
                l(3) =   1
                l(4) =   1
                l(5) =   2
     Q(r) pseudized with  6 coefficients,  rinner =    1.800   1.800   1.800
                                                       1.800   1.800

     atomic species   valence    mass     pseudopotential
        Ge            14.00    72.63000     Ge( 1.00)
        Te             6.00   127.60000     Te( 1.00)

      6 Sym. Ops. (no inversion) found



   Cartesian axes

     site n.     atom                  positions (alat units)
         1           Ge  tau(   1) = (   0.0000000   0.0000000   0.0105077  )
         2           Te  tau(   2) = (   0.0000000   0.0000000   0.8401424  )

     number of k points=  1872

     Number of k-points >= 100: set verbosity='high' to print them.

     Dense  grid:    87069 G-vectors     FFT dimensions: (  64,  64,  64)

     Smooth grid:    16727 G-vectors     FFT dimensions: (  36,  36,  36)

     Largest allocated arrays     est. size (Mb)     dimensions
        Kohn-Sham Wavefunctions         0.03 Mb     (    196,   10)
        NL pseudopotentials             0.09 Mb     (    196,   31)
        Each V/rho on FFT grid          0.38 Mb     (  24576)
        Each G-vector array             0.06 Mb     (   7256)
        G-vector shells                 0.05 Mb     (   6314)
     Largest temporary arrays     est. size (Mb)     dimensions
        Auxiliary wavefunctions         0.12 Mb     (    196,   40)
        Each subspace H/S matrix        0.02 Mb     (  40,  40)
        Each <psi_i|beta_j> matrix      0.00 Mb     (     31,   10)

     Check: negative/imaginary core charge=   -0.000002    0.000000

     The potential is recalculated from file :
     ./_ph0/GeTe_d.save/charge-density.dat

     Starting wfc are   13 atomic wfcs

     total cpu time spent up to now is       56.6 secs

     per-process dynamical memory:    69.9 Mb

     Band Structure Calculation
     Davidson diagonalization with overlap

     ethr =  5.00E-11,  avg # of iterations = 16.1

     total cpu time spent up to now is      111.4 secs

     End of band structure calculation

     Number of k-points >= 100: set verbosity='high' to print the bands.

     Writing output data file GeTe_d.save

                                                                                

     bravais-lattice index     =            0
     lattice parameter (alat)  =      11.3554  a.u.
     unit-cell volume          =     350.8895 (a.u.)^3
     number of atoms/cell      =            2
     number of atomic types    =            2
     kinetic-energy cut-off    =      50.0000  Ry
     charge density cut-off    =     600.0000  Ry
     convergence threshold     =      1.0E-16
     beta                      =       0.7000
     number of iterations used =            4
     Exchange-correlation      = PBESOL ( 1 410 8 0)
     EXX-fraction              =        0.00


     celldm(1)=   11.35536  celldm(2)=    0.00000  celldm(3)=    0.00000
     celldm(4)=    0.00000  celldm(5)=    0.00000  celldm(6)=    0.00000

     crystal axes: (cart. coord. in units of alat)
               a(1) = (  0.0000 -0.3992  0.5787 )  
               a(2) = (  0.3458  0.1996  0.5787 )  
               a(3) = ( -0.3458  0.1996  0.5787 )  

     reciprocal axes: (cart. coord. in units 2 pi/alat)
               b(1) = (  0.0000 -1.6698  0.5760 )  
               b(2) = (  1.4461  0.8349  0.5760 )  
               b(3) = ( -1.4461  0.8349  0.5760 )  


     Atoms inside the unit cell: 

   Cartesian axes

     site n.  atom      mass           positions (alat units)
        1        Ge  72.6300   tau( 1) = (    0.00000    0.00000    0.01051  )
        2        Te 127.6000   tau( 2) = (    0.00000    0.00000    0.84014  )

     Computing dynamical matrix for 
                    q = (  -0.4820336   0.2783022   0.1920100 )
 
      2 Sym.Ops. (no q -> -q+G )


     G cutoff = 1959.7184  (   7256 G-vectors)     FFT grid: ( 64, 64, 64)
     G cutoff =  653.2395  (   1387 G-vectors)  smooth grid: ( 36, 36, 36)
     number of k points=  1872

     PseudoPot. # 1 for Ge read from file:
     /work/02599/asmiller/pseudo/gbrv/pbe_GBRV/ge_pbe_v1.uspp.F.UPF
     MD5 check sum: 48aaa9fc4bb44e29d138cf8697c43b9a
     Pseudo is Ultrasoft + core correction, Zval = 14.0
     Generated by new atomic code, or converted to UPF format
     Using radial grid of  873 points,  6 beta functions with: 
                l(1) =   0
                l(2) =   0
                l(3) =   1
                l(4) =   1
                l(5) =   2
                l(6) =   2
     Q(r) pseudized with  8 coefficients,  rinner =    1.400   1.400   1.400
                                                       1.400   1.400

     PseudoPot. # 2 for Te read from file:
     /work/02599/asmiller/pseudo/gbrv/pbe_GBRV/te_pbe_v1.uspp.F.UPF
     MD5 check sum: 749656373d74338a59c146dbd702c29e
     Pseudo is Ultrasoft + core correction, Zval =  6.0
     Generated by new atomic code, or converted to UPF format
     Using radial grid of  891 points,  5 beta functions with: 
                l(1) =   0
                l(2) =   0
                l(3) =   1
                l(4) =   1
                l(5) =   2
     Q(r) pseudized with  6 coefficients,  rinner =    1.800   1.800   1.800
                                                       1.800   1.800


     Atomic displacements:
     There are   6 irreducible representations

     Representation     1      1 modes -A' To be done

     Representation     2      1 modes -A' To be done

     Representation     3      1 modes -A' To be done

     Representation     4      1 modes -A' To be done

     Representation     5      1 modes -A'' To be done

     Representation     6      1 modes -A'' To be done



     Alpha used in Ewald sum =   2.8000
     PHONON       : 29m15.97s CPU    29m59.33s WALL



     Representation #  1 mode #   1

     Self-consistent Calculation

      iter #   1 total cpu time :  1815.0 secs   av.it.:   8.7
      thresh= 0.100E-01 alpha_mix =  0.700 |ddv_scf|^2 =  0.142E-03

      iter #   2 total cpu time :  1836.0 secs   av.it.:  12.6
      thresh= 0.119E-02 alpha_mix =  0.700 |ddv_scf|^2 =  0.322E-02

      iter #   3 total cpu time :  1853.0 secs   av.it.:   9.9
      thresh= 0.567E-02 alpha_mix =  0.700 |ddv_scf|^2 =  0.343E-05

      iter #   4 total cpu time :  1874.1 secs   av.it.:  12.8
      thresh= 0.185E-03 alpha_mix =  0.700 |ddv_scf|^2 =  0.464E-06

      iter #   5 total cpu time :  1894.7 secs   av.it.:  12.5
      thresh= 0.681E-04 alpha_mix =  0.700 |ddv_scf|^2 =  0.208E-07

      iter #   6 total cpu time :  1915.6 secs   av.it.:  12.8
      thresh= 0.144E-04 alpha_mix =  0.700 |ddv_scf|^2 =  0.147E-09

      iter #   7 total cpu time :  1938.0 secs   av.it.:  13.8
      thresh= 0.121E-05 alpha_mix =  0.700 |ddv_scf|^2 =  0.191E-10

      iter #   8 total cpu time :  1959.5 secs   av.it.:  13.2
      thresh= 0.437E-06 alpha_mix =  0.700 |ddv_scf|^2 =  0.612E-10

      iter #   9 total cpu time :  1977.7 secs   av.it.:  10.7
      thresh= 0.783E-06 alpha_mix =  0.700 |ddv_scf|^2 =  0.150E-10

      iter #  10 total cpu time :  1996.7 secs   av.it.:  11.3
      thresh= 0.387E-06 alpha_mix =  0.700 |ddv_scf|^2 =  0.621E-12

      iter #  11 total cpu time :  2016.5 secs   av.it.:  12.0
      thresh= 0.788E-07 alpha_mix =  0.700 |ddv_scf|^2 =  0.586E-13

      iter #  12 total cpu time :  2037.5 secs   av.it.:  12.7
      thresh= 0.242E-07 alpha_mix =  0.700 |ddv_scf|^2 =  0.674E-14

      iter #  13 total cpu time :  2059.1 secs   av.it.:  13.2
      thresh= 0.821E-08 alpha_mix =  0.700 |ddv_scf|^2 =  0.602E-15

      iter #  14 total cpu time :  2081.8 secs   av.it.:  13.3
      thresh= 0.245E-08 alpha_mix =  0.700 |ddv_scf|^2 =  0.193E-14

      iter #  15 total cpu time :  2100.0 secs   av.it.:  10.7
      thresh= 0.439E-08 alpha_mix =  0.700 |ddv_scf|^2 =  0.222E-15

      iter #  16 total cpu time :  2119.0 secs   av.it.:  11.3
      thresh= 0.149E-08 alpha_mix =  0.700 |ddv_scf|^2 =  0.177E-15

      iter #  17 total cpu time :  2138.0 secs   av.it.:  11.3
      thresh= 0.133E-08 alpha_mix =  0.700 |ddv_scf|^2 =  0.905E-18

     End of self-consistent calculation

     Convergence has been achieved 


     Representation #  2 mode #   2

     Self-consistent Calculation

      iter #   1 total cpu time :  2149.7 secs   av.it.:   5.5
      thresh= 0.100E-01 alpha_mix =  0.700 |ddv_scf|^2 =  0.690E-04

      iter #   2 total cpu time :  2169.6 secs   av.it.:  11.9
      thresh= 0.830E-03 alpha_mix =  0.700 |ddv_scf|^2 =  0.169E-02

      iter #   3 total cpu time :  2186.5 secs   av.it.:   9.8
      thresh= 0.411E-02 alpha_mix =  0.700 |ddv_scf|^2 =  0.311E-06

      iter #   4 total cpu time :  2207.5 secs   av.it.:  12.8
      thresh= 0.558E-04 alpha_mix =  0.700 |ddv_scf|^2 =  0.381E-07

      iter #   5 total cpu time :  2228.1 secs   av.it.:  12.5
      thresh= 0.195E-04 alpha_mix =  0.700 |ddv_scf|^2 =  0.272E-09

      iter #   6 total cpu time :  2249.4 secs   av.it.:  13.1
      thresh= 0.165E-05 alpha_mix =  0.700 |ddv_scf|^2 =  0.869E-11

      iter #   7 total cpu time :  2271.9 secs   av.it.:  13.9
      thresh= 0.295E-06 alpha_mix =  0.700 |ddv_scf|^2 =  0.646E-11

      iter #   8 total cpu time :  2291.8 secs   av.it.:  12.0
      thresh= 0.254E-06 alpha_mix =  0.700 |ddv_scf|^2 =  0.262E-10

      iter #   9 total cpu time :  2310.0 secs   av.it.:  10.7
      thresh= 0.512E-06 alpha_mix =  0.700 |ddv_scf|^2 =  0.334E-12

      iter #  10 total cpu time :  2328.3 secs   av.it.:  10.9
      thresh= 0.578E-07 alpha_mix =  0.700 |ddv_scf|^2 =  0.170E-14

      iter #  11 total cpu time :  2350.5 secs   av.it.:  13.7
      thresh= 0.412E-08 alpha_mix =  0.700 |ddv_scf|^2 =  0.147E-15

      iter #  12 total cpu time :  2373.1 secs   av.it.:  14.0
      thresh= 0.121E-08 alpha_mix =  0.700 |ddv_scf|^2 =  0.759E-16

     End of self-consistent calculation

     Convergence has been achieved 


     Representation #  3 mode #   3

     Self-consistent Calculation

      iter #   1 total cpu time :  2384.1 secs   av.it.:   5.1
      thresh= 0.100E-01 alpha_mix =  0.700 |ddv_scf|^2 =  0.148E-05

      iter #   2 total cpu time :  2404.4 secs   av.it.:  12.2
      thresh= 0.122E-03 alpha_mix =  0.700 |ddv_scf|^2 =  0.346E-04

      iter #   3 total cpu time :  2421.3 secs   av.it.:   9.8
      thresh= 0.588E-03 alpha_mix =  0.700 |ddv_scf|^2 =  0.147E-07

      iter #   4 total cpu time :  2443.1 secs   av.it.:  13.3
      thresh= 0.121E-04 alpha_mix =  0.700 |ddv_scf|^2 =  0.467E-08

      iter #   5 total cpu time :  2464.2 secs   av.it.:  12.8
      thresh= 0.683E-05 alpha_mix =  0.700 |ddv_scf|^2 =  0.147E-09

      iter #   6 total cpu time :  2486.0 secs   av.it.:  13.3
      thresh= 0.121E-05 alpha_mix =  0.700 |ddv_scf|^2 =  0.167E-11

      iter #   7 total cpu time :  2508.8 secs   av.it.:  14.1
      thresh= 0.129E-06 alpha_mix =  0.700 |ddv_scf|^2 =  0.428E-11

      iter #   8 total cpu time :  2527.6 secs   av.it.:  11.2
      thresh= 0.207E-06 alpha_mix =  0.700 |ddv_scf|^2 =  0.730E-11

      iter #   9 total cpu time :  2545.5 secs   av.it.:  10.4
      thresh= 0.270E-06 alpha_mix =  0.700 |ddv_scf|^2 =  0.990E-12

      iter #  10 total cpu time :  2564.5 secs   av.it.:  11.3
      thresh= 0.995E-07 alpha_mix =  0.700 |ddv_scf|^2 =  0.154E-13

      iter #  11 total cpu time :  2586.4 secs   av.it.:  13.5
      thresh= 0.124E-07 alpha_mix =  0.700 |ddv_scf|^2 =  0.641E-14

      iter #  12 total cpu time :  2607.7 secs   av.it.:  12.9
      thresh= 0.801E-08 alpha_mix =  0.700 |ddv_scf|^2 =  0.179E-15

      iter #  13 total cpu time :  2630.2 secs   av.it.:  13.9
      thresh= 0.134E-08 alpha_mix =  0.700 |ddv_scf|^2 =  0.963E-16

     End of self-consistent calculation

     Convergence has been achieved 


     Representation #  4 mode #   4

     Self-consistent Calculation

      iter #   1 total cpu time :  2646.7 secs   av.it.:   8.9
      thresh= 0.100E-01 alpha_mix =  0.700 |ddv_scf|^2 =  0.350E-03

      iter #   2 total cpu time :  2667.4 secs   av.it.:  12.5
      thresh= 0.187E-02 alpha_mix =  0.700 |ddv_scf|^2 =  0.826E-02

      iter #   3 total cpu time :  2684.4 secs   av.it.:   9.9
      thresh= 0.909E-02 alpha_mix =  0.700 |ddv_scf|^2 =  0.621E-05

      iter #   4 total cpu time :  2705.2 secs   av.it.:  12.6
      thresh= 0.249E-03 alpha_mix =  0.700 |ddv_scf|^2 =  0.612E-06

      iter #   5 total cpu time :  2725.7 secs   av.it.:  12.4
      thresh= 0.782E-04 alpha_mix =  0.700 |ddv_scf|^2 =  0.379E-07

      iter #   6 total cpu time :  2746.2 secs   av.it.:  12.4
      thresh= 0.195E-04 alpha_mix =  0.700 |ddv_scf|^2 =  0.503E-09

      iter #   7 total cpu time :  2767.6 secs   av.it.:  13.1
      thresh= 0.224E-05 alpha_mix =  0.700 |ddv_scf|^2 =  0.377E-10

      iter #   8 total cpu time :  2788.3 secs   av.it.:  12.6
      thresh= 0.614E-06 alpha_mix =  0.700 |ddv_scf|^2 =  0.791E-10

      iter #   9 total cpu time :  2806.3 secs   av.it.:  10.6
      thresh= 0.889E-06 alpha_mix =  0.700 |ddv_scf|^2 =  0.113E-10

      iter #  10 total cpu time :  2825.9 secs   av.it.:  11.8
      thresh= 0.336E-06 alpha_mix =  0.700 |ddv_scf|^2 =  0.111E-12

      iter #  11 total cpu time :  2846.7 secs   av.it.:  12.6
      thresh= 0.333E-07 alpha_mix =  0.700 |ddv_scf|^2 =  0.106E-13

      iter #  12 total cpu time :  2868.0 secs   av.it.:  13.0
      thresh= 0.103E-07 alpha_mix =  0.700 |ddv_scf|^2 =  0.227E-14

      iter #  13 total cpu time :  2889.6 secs   av.it.:  13.2
      thresh= 0.477E-08 alpha_mix =  0.700 |ddv_scf|^2 =  0.184E-15

      iter #  14 total cpu time :  2911.1 secs   av.it.:  13.2
      thresh= 0.136E-08 alpha_mix =  0.700 |ddv_scf|^2 =  0.246E-15

      iter #  15 total cpu time :  2930.2 secs   av.it.:  11.4
      thresh= 0.157E-08 alpha_mix =  0.700 |ddv_scf|^2 =  0.119E-15

      iter #  16 total cpu time :  2948.9 secs   av.it.:  11.1
      thresh= 0.109E-08 alpha_mix =  0.700 |ddv_scf|^2 =  0.366E-16

     End of self-consistent calculation

     Convergence has been achieved 


     Representation #  5 mode #   5

     Self-consistent Calculation

      iter #   1 total cpu time :  2959.7 secs   av.it.:   5.0
      thresh= 0.100E-01 alpha_mix =  0.700 |ddv_scf|^2 =  0.630E-07

      iter #   2 total cpu time :  2982.0 secs   av.it.:  13.4
      thresh= 0.251E-04 alpha_mix =  0.700 |ddv_scf|^2 =  0.445E-08

      iter #   3 total cpu time :  3004.2 secs   av.it.:  13.6
      thresh= 0.667E-05 alpha_mix =  0.700 |ddv_scf|^2 =  0.254E-09

      iter #   4 total cpu time :  3026.5 secs   av.it.:  13.7
      thresh= 0.159E-05 alpha_mix =  0.700 |ddv_scf|^2 =  0.303E-11

      iter #   5 total cpu time :  3048.9 secs   av.it.:  13.9
      thresh= 0.174E-06 alpha_mix =  0.700 |ddv_scf|^2 =  0.151E-12

      iter #   6 total cpu time :  3071.5 secs   av.it.:  14.0
      thresh= 0.389E-07 alpha_mix =  0.700 |ddv_scf|^2 =  0.251E-14

      iter #   7 total cpu time :  3093.8 secs   av.it.:  13.6
      thresh= 0.501E-08 alpha_mix =  0.700 |ddv_scf|^2 =  0.868E-16

     End of self-consistent calculation

     Convergence has been achieved 


     Representation #  6 mode #   6

     Self-consistent Calculation

      iter #   1 total cpu time :  3109.7 secs   av.it.:   8.4
      thresh= 0.100E-01 alpha_mix =  0.700 |ddv_scf|^2 =  0.783E-05

      iter #   2 total cpu time :  3131.2 secs   av.it.:  13.1
      thresh= 0.280E-03 alpha_mix =  0.700 |ddv_scf|^2 =  0.953E-06

      iter #   3 total cpu time :  3152.5 secs   av.it.:  13.0
      thresh= 0.976E-04 alpha_mix =  0.700 |ddv_scf|^2 =  0.736E-08

      iter #   4 total cpu time :  3175.0 secs   av.it.:  13.8
      thresh= 0.858E-05 alpha_mix =  0.700 |ddv_scf|^2 =  0.281E-09

      iter #   5 total cpu time :  3197.2 secs   av.it.:  13.6
      thresh= 0.168E-05 alpha_mix =  0.700 |ddv_scf|^2 =  0.573E-11

      iter #   6 total cpu time :  3219.3 secs   av.it.:  13.6
      thresh= 0.239E-06 alpha_mix =  0.700 |ddv_scf|^2 =  0.141E-12

      iter #   7 total cpu time :  3239.9 secs   av.it.:  12.4
      thresh= 0.376E-07 alpha_mix =  0.700 |ddv_scf|^2 =  0.517E-14

      iter #   8 total cpu time :  3261.7 secs   av.it.:  13.3
      thresh= 0.719E-08 alpha_mix =  0.700 |ddv_scf|^2 =  0.170E-16

     End of self-consistent calculation

     Convergence has been achieved 
 
     Number of q in the star =    3
     List of q in the star:
          1  -0.482033590   0.278302223   0.192010000
          2   0.482033590   0.278302223   0.192010000
          3   0.000000000  -0.556604446   0.192010000
     In addition there is the -q list: 
          1   0.482033590  -0.278302223  -0.192010000
          2  -0.482033590  -0.278302223  -0.192010000
          3   0.000000000   0.556604446  -0.192010000

     Diagonalizing the dynamical matrix

     q = (   -0.482033590   0.278302223   0.192010000 ) 

 **************************************************************************
     omega( 1) =       2.193362 [THz] =      73.162691 [cm-1]
     omega( 2) =       2.277374 [THz] =      75.965028 [cm-1]
     omega( 3) =       2.840605 [THz] =      94.752374 [cm-1]
     omega( 4) =       4.105562 [THz] =     136.946795 [cm-1]
     omega( 5) =       4.125718 [THz] =     137.619141 [cm-1]
     omega( 6) =       5.197126 [THz] =     173.357460 [cm-1]
 **************************************************************************

     Mode symmetry, C_s (m)     point group:

     omega(  1 -  1) =         73.2  [cm-1]   --> A''                
     omega(  2 -  2) =         76.0  [cm-1]   --> A'                 
     omega(  3 -  3) =         94.8  [cm-1]   --> A'                 
     omega(  4 -  4) =        136.9  [cm-1]   --> A''                
     omega(  5 -  5) =        137.6  [cm-1]   --> A'                 
     omega(  6 -  6) =        173.4  [cm-1]   --> A'                 

 **************************************************************************

     Calculation of q =    0.7230504  -0.4174533  -0.2880150
 
     Parallelization info
     --------------------
     sticks:   dense  smooth     PW     G-vecs:    dense   smooth      PW
     Min         217      71     25                 7255     1382     281
     Max         218      72     26                 7257     1408     284
     Sum        2613     859    301                87069    16727    3389
 


     bravais-lattice index     =            0
     lattice parameter (alat)  =      11.3554  a.u.
     unit-cell volume          =     350.8895 (a.u.)^3
     number of atoms/cell      =            2
     number of atomic types    =            2
     number of electrons       =        20.00
     number of Kohn-Sham states=           10
     kinetic-energy cutoff     =      50.0000  Ry
     charge density cutoff     =     600.0000  Ry
     Exchange-correlation      = PBESOL ( 1 410 8 0)
     EXX-fraction              =        0.00

     celldm(1)=  11.355364  celldm(2)=   0.000000  celldm(3)=   0.000000
     celldm(4)=   0.000000  celldm(5)=   0.000000  celldm(6)=   0.000000

     crystal axes: (cart. coord. in units of alat)
               a(1) = (   0.000000  -0.399246   0.578674 )  
               a(2) = (   0.345757   0.199623   0.578674 )  
               a(3) = (  -0.345757   0.199623   0.578674 )  

     reciprocal axes: (cart. coord. in units 2 pi/alat)
               b(1) = (  0.000000 -1.669813  0.576030 )  
               b(2) = (  1.446101  0.834907  0.576030 )  
               b(3) = ( -1.446101  0.834907  0.576030 )  


     PseudoPot. # 1 for Ge read from file:
     /work/02599/asmiller/pseudo/gbrv/pbe_GBRV/ge_pbe_v1.uspp.F.UPF
     MD5 check sum: 48aaa9fc4bb44e29d138cf8697c43b9a
     Pseudo is Ultrasoft + core correction, Zval = 14.0
     Generated by new atomic code, or converted to UPF format
     Using radial grid of  873 points,  6 beta functions with: 
                l(1) =   0
                l(2) =   0
                l(3) =   1
                l(4) =   1
                l(5) =   2
                l(6) =   2
     Q(r) pseudized with  8 coefficients,  rinner =    1.400   1.400   1.400
                                                       1.400   1.400

     PseudoPot. # 2 for Te read from file:
     /work/02599/asmiller/pseudo/gbrv/pbe_GBRV/te_pbe_v1.uspp.F.UPF
     MD5 check sum: 749656373d74338a59c146dbd702c29e
     Pseudo is Ultrasoft + core correction, Zval =  6.0
     Generated by new atomic code, or converted to UPF format
     Using radial grid of  891 points,  5 beta functions with: 
                l(1) =   0
                l(2) =   0
                l(3) =   1
                l(4) =   1
                l(5) =   2
     Q(r) pseudized with  6 coefficients,  rinner =    1.800   1.800   1.800
                                                       1.800   1.800

     atomic species   valence    mass     pseudopotential
        Ge            14.00    72.63000     Ge( 1.00)
        Te             6.00   127.60000     Te( 1.00)

      6 Sym. Ops. (no inversion) found



   Cartesian axes

     site n.     atom                  positions (alat units)
         1           Ge  tau(   1) = (   0.0000000   0.0000000   0.0105077  )
         2           Te  tau(   2) = (   0.0000000   0.0000000   0.8401424  )

     number of k points=   952

     Number of k-points >= 100: set verbosity='high' to print them.

     Dense  grid:    87069 G-vectors     FFT dimensions: (  64,  64,  64)

     Smooth grid:    16727 G-vectors     FFT dimensions: (  36,  36,  36)

     Largest allocated arrays     est. size (Mb)     dimensions
        Kohn-Sham Wavefunctions         0.03 Mb     (    185,   10)
        NL pseudopotentials             0.09 Mb     (    185,   31)
        Each V/rho on FFT grid          0.38 Mb     (  24576)
        Each G-vector array             0.06 Mb     (   7256)
        G-vector shells                 0.05 Mb     (   6308)
     Largest temporary arrays     est. size (Mb)     dimensions
        Auxiliary wavefunctions         0.11 Mb     (    185,   40)
        Each subspace H/S matrix        0.02 Mb     (  40,  40)
        Each <psi_i|beta_j> matrix      0.00 Mb     (     31,   10)

     Check: negative/imaginary core charge=   -0.000002    0.000000

     The potential is recalculated from file :
     ./_ph0/GeTe_d.save/charge-density.dat

     Starting wfc are   13 atomic wfcs

     total cpu time spent up to now is      114.9 secs

     per-process dynamical memory:    69.9 Mb

     Band Structure Calculation
     Davidson diagonalization with overlap

     ethr =  5.00E-11,  avg # of iterations = 16.1

     total cpu time spent up to now is      143.3 secs

     End of band structure calculation

     Number of k-points >= 100: set verbosity='high' to print the bands.

     Writing output data file GeTe_d.save

                                                                                

     bravais-lattice index     =            0
     lattice parameter (alat)  =      11.3554  a.u.
     unit-cell volume          =     350.8895 (a.u.)^3
     number of atoms/cell      =            2
     number of atomic types    =            2
     kinetic-energy cut-off    =      50.0000  Ry
     charge density cut-off    =     600.0000  Ry
     convergence threshold     =      1.0E-16
     beta                      =       0.7000
     number of iterations used =            4
     Exchange-correlation      = PBESOL ( 1 410 8 0)
     EXX-fraction              =        0.00


     celldm(1)=   11.35536  celldm(2)=    0.00000  celldm(3)=    0.00000
     celldm(4)=    0.00000  celldm(5)=    0.00000  celldm(6)=    0.00000

     crystal axes: (cart. coord. in units of alat)
               a(1) = (  0.0000 -0.3992  0.5787 )  
               a(2) = (  0.3458  0.1996  0.5787 )  
               a(3) = ( -0.3458  0.1996  0.5787 )  

     reciprocal axes: (cart. coord. in units 2 pi/alat)
               b(1) = (  0.0000 -1.6698  0.5760 )  
               b(2) = (  1.4461  0.8349  0.5760 )  
               b(3) = ( -1.4461  0.8349  0.5760 )  


     Atoms inside the unit cell: 

   Cartesian axes

     site n.  atom      mass           positions (alat units)
        1        Ge  72.6300   tau( 1) = (    0.00000    0.00000    0.01051  )
        2        Te 127.6000   tau( 2) = (    0.00000    0.00000    0.84014  )

     Computing dynamical matrix for 
                    q = (   0.7230504  -0.4174533  -0.2880150 )
 
      3 Sym.Ops. (with q -> -q+G )


     G cutoff = 1959.7184  (   7256 G-vectors)     FFT grid: ( 64, 64, 64)
     G cutoff =  653.2395  (   1386 G-vectors)  smooth grid: ( 36, 36, 36)
     number of k points=   952

     PseudoPot. # 1 for Ge read from file:
     /work/02599/asmiller/pseudo/gbrv/pbe_GBRV/ge_pbe_v1.uspp.F.UPF
     MD5 check sum: 48aaa9fc4bb44e29d138cf8697c43b9a
     Pseudo is Ultrasoft + core correction, Zval = 14.0
     Generated by new atomic code, or converted to UPF format
     Using radial grid of  873 points,  6 beta functions with: 
                l(1) =   0
                l(2) =   0
                l(3) =   1
                l(4) =   1
                l(5) =   2
                l(6) =   2
     Q(r) pseudized with  8 coefficients,  rinner =    1.400   1.400   1.400
                                                       1.400   1.400

     PseudoPot. # 2 for Te read from file:
     /work/02599/asmiller/pseudo/gbrv/pbe_GBRV/te_pbe_v1.uspp.F.UPF
     MD5 check sum: 749656373d74338a59c146dbd702c29e
     Pseudo is Ultrasoft + core correction, Zval =  6.0
     Generated by new atomic code, or converted to UPF format
     Using radial grid of  891 points,  5 beta functions with: 
                l(1) =   0
                l(2) =   0
                l(3) =   1
                l(4) =   1
                l(5) =   2
     Q(r) pseudized with  6 coefficients,  rinner =    1.800   1.800   1.800
                                                       1.800   1.800


     Atomic displacements:
     There are   6 irreducible representations

     Representation     1      1 modes -A' To be done

     Representation     2      1 modes -A' To be done

     Representation     3      1 modes -A' To be done

     Representation     4      1 modes -A' To be done

     Representation     5      1 modes -A'' To be done

     Representation     6      1 modes -A'' To be done



     Alpha used in Ewald sum =   2.8000
     PHONON       : 53m47.97s CPU    54m58.11s WALL



     Representation #  1 mode #   1

     Self-consistent Calculation

      iter #   1 total cpu time :  3306.3 secs   av.it.:   8.6
      thresh= 0.100E-01 alpha_mix =  0.700 |ddv_scf|^2 =  0.357E-04

      iter #   2 total cpu time :  3317.8 secs   av.it.:  13.3
      thresh= 0.597E-03 alpha_mix =  0.700 |ddv_scf|^2 =  0.133E-03

      iter #   3 total cpu time :  3327.9 secs   av.it.:  11.5
      thresh= 0.115E-02 alpha_mix =  0.700 |ddv_scf|^2 =  0.867E-06

      iter #   4 total cpu time :  3339.1 secs   av.it.:  13.0
      thresh= 0.931E-04 alpha_mix =  0.700 |ddv_scf|^2 =  0.428E-06

      iter #   5 total cpu time :  3349.2 secs   av.it.:  11.5
      thresh= 0.654E-04 alpha_mix =  0.700 |ddv_scf|^2 =  0.272E-07

      iter #   6 total cpu time :  3359.9 secs   av.it.:  12.4
      thresh= 0.165E-04 alpha_mix =  0.700 |ddv_scf|^2 =  0.827E-10

      iter #   7 total cpu time :  3371.7 secs   av.it.:  13.8
      thresh= 0.910E-06 alpha_mix =  0.700 |ddv_scf|^2 =  0.351E-11

      iter #   8 total cpu time :  3383.7 secs   av.it.:  14.1
      thresh= 0.187E-06 alpha_mix =  0.700 |ddv_scf|^2 =  0.597E-12

      iter #   9 total cpu time :  3395.2 secs   av.it.:  13.5
      thresh= 0.773E-07 alpha_mix =  0.700 |ddv_scf|^2 =  0.304E-13

      iter #  10 total cpu time :  3406.3 secs   av.it.:  13.0
      thresh= 0.174E-07 alpha_mix =  0.700 |ddv_scf|^2 =  0.310E-14

      iter #  11 total cpu time :  3417.5 secs   av.it.:  13.1
      thresh= 0.556E-08 alpha_mix =  0.700 |ddv_scf|^2 =  0.370E-14

      iter #  12 total cpu time :  3427.8 secs   av.it.:  11.8
      thresh= 0.608E-08 alpha_mix =  0.700 |ddv_scf|^2 =  0.760E-16

     End of self-consistent calculation

     Convergence has been achieved 


     Representation #  2 mode #   2

     Self-consistent Calculation

      iter #   1 total cpu time :  3434.4 secs   av.it.:   5.4
      thresh= 0.100E-01 alpha_mix =  0.700 |ddv_scf|^2 =  0.119E-04

      iter #   2 total cpu time :  3445.1 secs   av.it.:  12.2
      thresh= 0.344E-03 alpha_mix =  0.700 |ddv_scf|^2 =  0.689E-04

      iter #   3 total cpu time :  3454.7 secs   av.it.:  10.9
      thresh= 0.830E-03 alpha_mix =  0.700 |ddv_scf|^2 =  0.329E-07

      iter #   4 total cpu time :  3465.9 secs   av.it.:  12.9
      thresh= 0.181E-04 alpha_mix =  0.700 |ddv_scf|^2 =  0.202E-07

      iter #   5 total cpu time :  3476.4 secs   av.it.:  12.0
      thresh= 0.142E-04 alpha_mix =  0.700 |ddv_scf|^2 =  0.150E-09

      iter #   6 total cpu time :  3487.8 secs   av.it.:  13.3
      thresh= 0.123E-05 alpha_mix =  0.700 |ddv_scf|^2 =  0.222E-11

      iter #   7 total cpu time :  3499.5 secs   av.it.:  13.8
      thresh= 0.149E-06 alpha_mix =  0.700 |ddv_scf|^2 =  0.111E-12

      iter #   8 total cpu time :  3511.2 secs   av.it.:  13.8
      thresh= 0.333E-07 alpha_mix =  0.700 |ddv_scf|^2 =  0.349E-14

      iter #   9 total cpu time :  3523.1 secs   av.it.:  14.0
      thresh= 0.591E-08 alpha_mix =  0.700 |ddv_scf|^2 =  0.281E-15

      iter #  10 total cpu time :  3534.7 secs   av.it.:  13.7
      thresh= 0.168E-08 alpha_mix =  0.700 |ddv_scf|^2 =  0.646E-16

     End of self-consistent calculation

     Convergence has been achieved 


     Representation #  3 mode #   3

     Self-consistent Calculation

      iter #   1 total cpu time :  3540.6 secs   av.it.:   5.0
      thresh= 0.100E-01 alpha_mix =  0.700 |ddv_scf|^2 =  0.274E-06

      iter #   2 total cpu time :  3551.6 secs   av.it.:  12.8
      thresh= 0.523E-04 alpha_mix =  0.700 |ddv_scf|^2 =  0.121E-05

      iter #   3 total cpu time :  3561.3 secs   av.it.:  11.0
      thresh= 0.110E-03 alpha_mix =  0.700 |ddv_scf|^2 =  0.949E-08

      iter #   4 total cpu time :  3572.4 secs   av.it.:  12.8
      thresh= 0.974E-05 alpha_mix =  0.700 |ddv_scf|^2 =  0.662E-09

      iter #   5 total cpu time :  3583.7 secs   av.it.:  13.0
      thresh= 0.257E-05 alpha_mix =  0.700 |ddv_scf|^2 =  0.944E-09

      iter #   6 total cpu time :  3593.9 secs   av.it.:  11.8
      thresh= 0.307E-05 alpha_mix =  0.700 |ddv_scf|^2 =  0.786E-12

      iter #   7 total cpu time :  3606.0 secs   av.it.:  14.3
      thresh= 0.886E-07 alpha_mix =  0.700 |ddv_scf|^2 =  0.834E-13

      iter #   8 total cpu time :  3617.8 secs   av.it.:  13.8
      thresh= 0.289E-07 alpha_mix =  0.700 |ddv_scf|^2 =  0.451E-14

      iter #   9 total cpu time :  3629.8 secs   av.it.:  14.2
      thresh= 0.672E-08 alpha_mix =  0.700 |ddv_scf|^2 =  0.145E-14

      iter #  10 total cpu time :  3640.7 secs   av.it.:  12.4
      thresh= 0.381E-08 alpha_mix =  0.700 |ddv_scf|^2 =  0.699E-15

      iter #  11 total cpu time :  3651.4 secs   av.it.:  12.3
      thresh= 0.264E-08 alpha_mix =  0.700 |ddv_scf|^2 =  0.238E-16

     End of self-consistent calculation

     Convergence has been achieved 


     Representation #  4 mode #   4

     Self-consistent Calculation

      iter #   1 total cpu time :  3660.0 secs   av.it.:   8.9
      thresh= 0.100E-01 alpha_mix =  0.700 |ddv_scf|^2 =  0.792E-04

      iter #   2 total cpu time :  3671.4 secs   av.it.:  13.2
      thresh= 0.890E-03 alpha_mix =  0.700 |ddv_scf|^2 =  0.344E-03

      iter #   3 total cpu time :  3681.5 secs   av.it.:  11.5
      thresh= 0.185E-02 alpha_mix =  0.700 |ddv_scf|^2 =  0.798E-06

      iter #   4 total cpu time :  3692.7 secs   av.it.:  13.0
      thresh= 0.893E-04 alpha_mix =  0.700 |ddv_scf|^2 =  0.910E-06

      iter #   5 total cpu time :  3702.7 secs   av.it.:  11.5
      thresh= 0.954E-04 alpha_mix =  0.700 |ddv_scf|^2 =  0.301E-07

      iter #   6 total cpu time :  3713.8 secs   av.it.:  12.3
      thresh= 0.174E-04 alpha_mix =  0.700 |ddv_scf|^2 =  0.405E-10

      iter #   7 total cpu time :  3725.8 secs   av.it.:  13.9
      thresh= 0.637E-06 alpha_mix =  0.700 |ddv_scf|^2 =  0.392E-11

      iter #   8 total cpu time :  3737.3 secs   av.it.:  13.6
      thresh= 0.198E-06 alpha_mix =  0.700 |ddv_scf|^2 =  0.303E-12

      iter #   9 total cpu time :  3748.8 secs   av.it.:  13.5
      thresh= 0.551E-07 alpha_mix =  0.700 |ddv_scf|^2 =  0.128E-13

      iter #  10 total cpu time :  3760.5 secs   av.it.:  13.4
      thresh= 0.113E-07 alpha_mix =  0.700 |ddv_scf|^2 =  0.126E-14

      iter #  11 total cpu time :  3771.3 secs   av.it.:  12.4
      thresh= 0.355E-08 alpha_mix =  0.700 |ddv_scf|^2 =  0.123E-15

      iter #  12 total cpu time :  3782.6 secs   av.it.:  13.0
      thresh= 0.111E-08 alpha_mix =  0.700 |ddv_scf|^2 =  0.363E-16

     End of self-consistent calculation

     Convergence has been achieved 


     Representation #  5 mode #   5

     Self-consistent Calculation

      iter #   1 total cpu time :  3788.4 secs   av.it.:   5.0
      thresh= 0.100E-01 alpha_mix =  0.700 |ddv_scf|^2 =  0.678E-07

      iter #   2 total cpu time :  3799.7 secs   av.it.:  13.3
      thresh= 0.260E-04 alpha_mix =  0.700 |ddv_scf|^2 =  0.448E-08

      iter #   3 total cpu time :  3811.2 secs   av.it.:  13.5
      thresh= 0.670E-05 alpha_mix =  0.700 |ddv_scf|^2 =  0.229E-09

      iter #   4 total cpu time :  3823.5 secs   av.it.:  13.6
      thresh= 0.151E-05 alpha_mix =  0.700 |ddv_scf|^2 =  0.230E-11

      iter #   5 total cpu time :  3835.3 secs   av.it.:  13.9
      thresh= 0.152E-06 alpha_mix =  0.700 |ddv_scf|^2 =  0.159E-12

      iter #   6 total cpu time :  3847.1 secs   av.it.:  14.0
      thresh= 0.399E-07 alpha_mix =  0.700 |ddv_scf|^2 =  0.243E-14

      iter #   7 total cpu time :  3858.6 secs   av.it.:  13.5
      thresh= 0.493E-08 alpha_mix =  0.700 |ddv_scf|^2 =  0.116E-15

      iter #   8 total cpu time :  3870.5 secs   av.it.:  14.0
      thresh= 0.108E-08 alpha_mix =  0.700 |ddv_scf|^2 =  0.580E-18

     End of self-consistent calculation

     Convergence has been achieved 


     Representation #  6 mode #   6

     Self-consistent Calculation

      iter #   1 total cpu time :  3878.8 secs   av.it.:   8.4
      thresh= 0.100E-01 alpha_mix =  0.700 |ddv_scf|^2 =  0.802E-05

      iter #   2 total cpu time :  3890.0 secs   av.it.:  13.1
      thresh= 0.283E-03 alpha_mix =  0.700 |ddv_scf|^2 =  0.100E-05

      iter #   3 total cpu time :  3901.1 secs   av.it.:  12.9
      thresh= 0.100E-03 alpha_mix =  0.700 |ddv_scf|^2 =  0.694E-08

      iter #   4 total cpu time :  3912.7 secs   av.it.:  13.6
      thresh= 0.833E-05 alpha_mix =  0.700 |ddv_scf|^2 =  0.124E-09

      iter #   5 total cpu time :  3924.3 secs   av.it.:  13.7
      thresh= 0.111E-05 alpha_mix =  0.700 |ddv_scf|^2 =  0.633E-11

      iter #   6 total cpu time :  3935.9 secs   av.it.:  13.5
      thresh= 0.252E-06 alpha_mix =  0.700 |ddv_scf|^2 =  0.127E-12

      iter #   7 total cpu time :  3946.4 secs   av.it.:  12.1
      thresh= 0.357E-07 alpha_mix =  0.700 |ddv_scf|^2 =  0.689E-14

      iter #   8 total cpu time :  3957.7 secs   av.it.:  13.0
      thresh= 0.830E-08 alpha_mix =  0.700 |ddv_scf|^2 =  0.117E-16

     End of self-consistent calculation

     Convergence has been achieved 
 
     Number of q in the star =    3
     List of q in the star:
          1   0.723050384  -0.417453335  -0.288015000
          2  -0.723050384  -0.417453335  -0.288015000
          3   0.000000000   0.834906669  -0.288015000

     Diagonalizing the dynamical matrix

     q = (    0.723050384  -0.417453335  -0.288015000 ) 

 **************************************************************************
     omega( 1) =       2.639375 [THz] =      88.040078 [cm-1]
     omega( 2) =       3.023551 [THz] =     100.854810 [cm-1]
     omega( 3) =       3.056513 [THz] =     101.954287 [cm-1]
     omega( 4) =       4.091478 [THz] =     136.477002 [cm-1]
     omega( 5) =       4.104428 [THz] =     136.908979 [cm-1]
     omega( 6) =       5.197636 [THz] =     173.374480 [cm-1]
 **************************************************************************

     Mode symmetry, C_s (m)     point group:

     omega(  1 -  1) =         88.0  [cm-1]   --> A''                
     omega(  2 -  2) =        100.9  [cm-1]   --> A'                 
     omega(  3 -  3) =        102.0  [cm-1]   --> A'                 
     omega(  4 -  4) =        136.5  [cm-1]   --> A'                 
     omega(  5 -  5) =        136.9  [cm-1]   --> A''                
     omega(  6 -  6) =        173.4  [cm-1]   --> A'                 

 **************************************************************************

     Calculation of q =    0.0000000   0.2783022   0.1920100
 
     Parallelization info
     --------------------
     sticks:   dense  smooth     PW     G-vecs:    dense   smooth      PW
     Min         217      71     22                 7255     1385     245
     Max         218      72     23                 7257     1406     247
     Sum        2613     859    273                87069    16727    2951
 


     bravais-lattice index     =            0
     lattice parameter (alat)  =      11.3554  a.u.
     unit-cell volume          =     350.8895 (a.u.)^3
     number of atoms/cell      =            2
     number of atomic types    =            2
     number of electrons       =        20.00
     number of Kohn-Sham states=           10
     kinetic-energy cutoff     =      50.0000  Ry
     charge density cutoff     =     600.0000  Ry
     Exchange-correlation      = PBESOL ( 1 410 8 0)
     EXX-fraction              =        0.00

     celldm(1)=  11.355364  celldm(2)=   0.000000  celldm(3)=   0.000000
     celldm(4)=   0.000000  celldm(5)=   0.000000  celldm(6)=   0.000000

     crystal axes: (cart. coord. in units of alat)
               a(1) = (   0.000000  -0.399246   0.578674 )  
               a(2) = (   0.345757   0.199623   0.578674 )  
               a(3) = (  -0.345757   0.199623   0.578674 )  

     reciprocal axes: (cart. coord. in units 2 pi/alat)
               b(1) = (  0.000000 -1.669813  0.576030 )  
               b(2) = (  1.446101  0.834907  0.576030 )  
               b(3) = ( -1.446101  0.834907  0.576030 )  


     PseudoPot. # 1 for Ge read from file:
     /work/02599/asmiller/pseudo/gbrv/pbe_GBRV/ge_pbe_v1.uspp.F.UPF
     MD5 check sum: 48aaa9fc4bb44e29d138cf8697c43b9a
     Pseudo is Ultrasoft + core correction, Zval = 14.0
     Generated by new atomic code, or converted to UPF format
     Using radial grid of  873 points,  6 beta functions with: 
                l(1) =   0
                l(2) =   0
                l(3) =   1
                l(4) =   1
                l(5) =   2
                l(6) =   2
     Q(r) pseudized with  8 coefficients,  rinner =    1.400   1.400   1.400
                                                       1.400   1.400

     PseudoPot. # 2 for Te read from file:
     /work/02599/asmiller/pseudo/gbrv/pbe_GBRV/te_pbe_v1.uspp.F.UPF
     MD5 check sum: 749656373d74338a59c146dbd702c29e
     Pseudo is Ultrasoft + core correction, Zval =  6.0
     Generated by new atomic code, or converted to UPF format
     Using radial grid of  891 points,  5 beta functions with: 
                l(1) =   0
                l(2) =   0
                l(3) =   1
                l(4) =   1
                l(5) =   2
     Q(r) pseudized with  6 coefficients,  rinner =    1.800   1.800   1.800
                                                       1.800   1.800

     atomic species   valence    mass     pseudopotential
        Ge            14.00    72.63000     Ge( 1.00)
        Te             6.00   127.60000     Te( 1.00)

      6 Sym. Ops. (no inversion) found



   Cartesian axes

     site n.     atom                  positions (alat units)
         1           Ge  tau(   1) = (   0.0000000   0.0000000   0.0105077  )
         2           Te  tau(   2) = (   0.0000000   0.0000000   0.8401424  )

     number of k points=  1872

     Number of k-points >= 100: set verbosity='high' to print them.

     Dense  grid:    87069 G-vectors     FFT dimensions: (  64,  64,  64)

     Smooth grid:    16727 G-vectors     FFT dimensions: (  36,  36,  36)

     Largest allocated arrays     est. size (Mb)     dimensions
        Kohn-Sham Wavefunctions         0.03 Mb     (    188,   10)
        NL pseudopotentials             0.09 Mb     (    188,   31)
        Each V/rho on FFT grid          0.38 Mb     (  24576)
        Each G-vector array             0.06 Mb     (   7256)
        G-vector shells                 0.05 Mb     (   6263)
     Largest temporary arrays     est. size (Mb)     dimensions
        Auxiliary wavefunctions         0.11 Mb     (    188,   40)
        Each subspace H/S matrix        0.02 Mb     (  40,  40)
        Each <psi_i|beta_j> matrix      0.00 Mb     (     31,   10)

     Check: negative/imaginary core charge=   -0.000002    0.000000

     The potential is recalculated from file :
     ./_ph0/GeTe_d.save/charge-density.dat

     Starting wfc are   13 atomic wfcs

     total cpu time spent up to now is      145.6 secs

     per-process dynamical memory:    69.9 Mb

     Band Structure Calculation
     Davidson diagonalization with overlap

[...]
     kinetic-energy cutoff     =      50.0000  Ry
     charge density cutoff     =     600.0000  Ry
     Exchange-correlation      = PBESOL ( 1 410 8 0)
     EXX-fraction              =        0.00

     celldm(1)=  11.355364  celldm(2)=   0.000000  celldm(3)=   0.000000
     celldm(4)=   0.000000  celldm(5)=   0.000000  celldm(6)=   0.000000

     crystal axes: (cart. coord. in units of alat)
               a(1) = (   0.000000  -0.399246   0.578674 )  
               a(2) = (   0.345757   0.199623   0.578674 )  
               a(3) = (  -0.345757   0.199623   0.578674 )  

     reciprocal axes: (cart. coord. in units 2 pi/alat)
               b(1) = (  0.000000 -1.669813  0.576030 )  
               b(2) = (  1.446101  0.834907  0.576030 )  
               b(3) = ( -1.446101  0.834907  0.576030 )  


     PseudoPot. # 1 for Ge read from file:
     /work/02599/asmiller/pseudo/gbrv/pbe_GBRV/ge_pbe_v1.uspp.F.UPF
     MD5 check sum: 48aaa9fc4bb44e29d138cf8697c43b9a
     Pseudo is Ultrasoft + core correction, Zval = 14.0
     Generated by new atomic code, or converted to UPF format
     Using radial grid of  873 points,  6 beta functions with: 
                l(1) =   0
                l(2) =   0
                l(3) =   1
                l(4) =   1
                l(5) =   2
                l(6) =   2
     Q(r) pseudized with  8 coefficients,  rinner =    1.400   1.400   1.400
                                                       1.400   1.400

     PseudoPot. # 2 for Te read from file:
     /work/02599/asmiller/pseudo/gbrv/pbe_GBRV/te_pbe_v1.uspp.F.UPF
     MD5 check sum: 749656373d74338a59c146dbd702c29e
     Pseudo is Ultrasoft + core correction, Zval =  6.0
     Generated by new atomic code, or converted to UPF format
     Using radial grid of  891 points,  5 beta functions with: 
                l(1) =   0
                l(2) =   0
                l(3) =   1
                l(4) =   1
                l(5) =   2
     Q(r) pseudized with  6 coefficients,  rinner =    1.800   1.800   1.800
                                                       1.800   1.800

     atomic species   valence    mass     pseudopotential
        Ge            14.00    72.63000     Ge( 1.00)
        Te             6.00   127.60000     Te( 1.00)

      6 Sym. Ops. (no inversion) found



   Cartesian axes

     site n.     atom                  positions (alat units)
         1           Ge  tau(   1) = (   0.0000000   0.0000000   0.0105077  )
         2           Te  tau(   2) = (   0.0000000   0.0000000   0.8401424  )

     number of k points=   378

     Number of k-points >= 100: set verbosity='high' to print them.

     Dense  grid:    87069 G-vectors     FFT dimensions: (  64,  64,  64)

     Smooth grid:    16727 G-vectors     FFT dimensions: (  36,  36,  36)

     Largest allocated arrays     est. size (Mb)     dimensions
        Kohn-Sham Wavefunctions         0.03 Mb     (    191,   10)
        NL pseudopotentials             0.09 Mb     (    191,   31)
        Each V/rho on FFT grid          0.38 Mb     (  24576)
        Each G-vector array             0.06 Mb     (   7256)
        G-vector shells                 0.05 Mb     (   6340)
     Largest temporary arrays     est. size (Mb)     dimensions
        Auxiliary wavefunctions         0.12 Mb     (    191,   40)
        Each subspace H/S matrix        0.02 Mb     (  40,  40)
        Each <psi_i|beta_j> matrix      0.00 Mb     (     31,   10)

     Check: negative/imaginary core charge=   -0.000002    0.000000

     The potential is recalculated from file :
     ./_ph0/GeTe_d.save/charge-density.dat

     Starting wfc are   13 atomic wfcs

     total cpu time spent up to now is     2025.9 secs

     per-process dynamical memory:    81.8 Mb

     Band Structure Calculation
     Davidson diagonalization with overlap

     ethr =  5.00E-11,  avg # of iterations = 16.1

     total cpu time spent up to now is     2036.3 secs

     End of band structure calculation

     Number of k-points >= 100: set verbosity='high' to print the bands.

     Writing output data file GeTe_d.save

                                                                                

     bravais-lattice index     =            0
     lattice parameter (alat)  =      11.3554  a.u.
     unit-cell volume          =     350.8895 (a.u.)^3
     number of atoms/cell      =            2
     number of atomic types    =            2
     kinetic-energy cut-off    =      50.0000  Ry
     charge density cut-off    =     600.0000  Ry
     convergence threshold     =      1.0E-16
     beta                      =       0.7000
     number of iterations used =            4
     Exchange-correlation      = PBESOL ( 1 410 8 0)
     EXX-fraction              =        0.00


     celldm(1)=   11.35536  celldm(2)=    0.00000  celldm(3)=    0.00000
     celldm(4)=    0.00000  celldm(5)=    0.00000  celldm(6)=    0.00000

     crystal axes: (cart. coord. in units of alat)
               a(1) = (  0.0000 -0.3992  0.5787 )  
               a(2) = (  0.3458  0.1996  0.5787 )  
               a(3) = ( -0.3458  0.1996  0.5787 )  

     reciprocal axes: (cart. coord. in units 2 pi/alat)
               b(1) = (  0.0000 -1.6698  0.5760 )  
               b(2) = (  1.4461  0.8349  0.5760 )  
               b(3) = ( -1.4461  0.8349  0.5760 )  


     Atoms inside the unit cell: 

   Cartesian axes

     site n.  atom      mass           positions (alat units)
        1        Ge  72.6300   tau( 1) = (    0.00000    0.00000    0.01051  )
        2        Te 127.6000   tau( 2) = (    0.00000    0.00000    0.84014  )

     Computing dynamical matrix for 
                    q = (   0.0000000   0.0000000  -0.8640450 )
 
      7 Sym.Ops. (with q -> -q+G )


     G cutoff = 1959.7184  (   7256 G-vectors)     FFT grid: ( 64, 64, 64)
     G cutoff =  653.2395  (   1386 G-vectors)  smooth grid: ( 36, 36, 36)
     number of k points=   378

     PseudoPot. # 1 for Ge read from file:
     /work/02599/asmiller/pseudo/gbrv/pbe_GBRV/ge_pbe_v1.uspp.F.UPF
     MD5 check sum: 48aaa9fc4bb44e29d138cf8697c43b9a
     Pseudo is Ultrasoft + core correction, Zval = 14.0
     Generated by new atomic code, or converted to UPF format
     Using radial grid of  873 points,  6 beta functions with: 
                l(1) =   0
                l(2) =   0
                l(3) =   1
                l(4) =   1
                l(5) =   2
                l(6) =   2
     Q(r) pseudized with  8 coefficients,  rinner =    1.400   1.400   1.400
                                                       1.400   1.400

     PseudoPot. # 2 for Te read from file:
     /work/02599/asmiller/pseudo/gbrv/pbe_GBRV/te_pbe_v1.uspp.F.UPF
     MD5 check sum: 749656373d74338a59c146dbd702c29e
     Pseudo is Ultrasoft + core correction, Zval =  6.0
     Generated by new atomic code, or converted to UPF format
     Using radial grid of  891 points,  5 beta functions with: 
                l(1) =   0
                l(2) =   0
                l(3) =   1
                l(4) =   1
                l(5) =   2
     Q(r) pseudized with  6 coefficients,  rinner =    1.800   1.800   1.800
                                                       1.800   1.800


     Atomic displacements:
     There are   4 irreducible representations

     Representation     1      1 modes -A_1  L_1 To be done

     Representation     2      1 modes -A_1  L_1 To be done

     Representation     3      2 modes -E    L_3 To be done

     Representation     4      2 modes -E    L_3 To be done



     Alpha used in Ewald sum =   2.8000
     PHONON       :    17h21m CPU       17h40m WALL



     Representation #  1 mode #   1

     Self-consistent Calculation

      iter #   1 total cpu time : 63649.3 secs   av.it.:   8.9
      thresh= 0.100E-01 alpha_mix =  0.700 |ddv_scf|^2 =  0.120E-03

      iter #   2 total cpu time : 63653.9 secs   av.it.:  12.9
      thresh= 0.109E-02 alpha_mix =  0.700 |ddv_scf|^2 =  0.620E-03

      iter #   3 total cpu time : 63658.0 secs   av.it.:  11.3
      thresh= 0.249E-02 alpha_mix =  0.700 |ddv_scf|^2 =  0.605E-05

      iter #   4 total cpu time : 63662.1 secs   av.it.:  11.4
      thresh= 0.246E-03 alpha_mix =  0.700 |ddv_scf|^2 =  0.671E-06

      iter #   5 total cpu time : 63666.3 secs   av.it.:  11.6
      thresh= 0.819E-04 alpha_mix =  0.700 |ddv_scf|^2 =  0.381E-07

      iter #   6 total cpu time : 63670.6 secs   av.it.:  12.3
      thresh= 0.195E-04 alpha_mix =  0.700 |ddv_scf|^2 =  0.979E-10

      iter #   7 total cpu time : 63675.4 secs   av.it.:  13.7
      thresh= 0.989E-06 alpha_mix =  0.700 |ddv_scf|^2 =  0.234E-10

      iter #   8 total cpu time : 63680.0 secs   av.it.:  13.0
      thresh= 0.483E-06 alpha_mix =  0.700 |ddv_scf|^2 =  0.987E-12

      iter #   9 total cpu time : 63684.6 secs   av.it.:  13.2
      thresh= 0.993E-07 alpha_mix =  0.700 |ddv_scf|^2 =  0.222E-13

      iter #  10 total cpu time : 63689.1 secs   av.it.:  12.6
      thresh= 0.149E-07 alpha_mix =  0.700 |ddv_scf|^2 =  0.186E-14

      iter #  11 total cpu time : 63693.5 secs   av.it.:  12.4
      thresh= 0.432E-08 alpha_mix =  0.700 |ddv_scf|^2 =  0.876E-15

      iter #  12 total cpu time : 63697.7 secs   av.it.:  11.7
      thresh= 0.296E-08 alpha_mix =  0.700 |ddv_scf|^2 =  0.594E-16

     End of self-consistent calculation

     Convergence has been achieved 


     Representation #  2 mode #   2

     Self-consistent Calculation

      iter #   1 total cpu time : 63700.4 secs   av.it.:   5.4
      thresh= 0.100E-01 alpha_mix =  0.700 |ddv_scf|^2 =  0.138E-04

      iter #   2 total cpu time : 63704.7 secs   av.it.:  12.1
      thresh= 0.372E-03 alpha_mix =  0.700 |ddv_scf|^2 =  0.891E-04

      iter #   3 total cpu time : 63708.7 secs   av.it.:  10.9
      thresh= 0.944E-03 alpha_mix =  0.700 |ddv_scf|^2 =  0.241E-06

      iter #   4 total cpu time : 63712.9 secs   av.it.:  11.4
      thresh= 0.491E-04 alpha_mix =  0.700 |ddv_scf|^2 =  0.789E-08

      iter #   5 total cpu time : 63717.3 secs   av.it.:  12.7
      thresh= 0.888E-05 alpha_mix =  0.700 |ddv_scf|^2 =  0.175E-09

      iter #   6 total cpu time : 63721.9 secs   av.it.:  12.9
      thresh= 0.132E-05 alpha_mix =  0.700 |ddv_scf|^2 =  0.387E-11

      iter #   7 total cpu time : 63726.4 secs   av.it.:  12.8
      thresh= 0.197E-06 alpha_mix =  0.700 |ddv_scf|^2 =  0.163E-12

      iter #   8 total cpu time : 63731.2 secs   av.it.:  13.1
      thresh= 0.404E-07 alpha_mix =  0.700 |ddv_scf|^2 =  0.594E-14

      iter #   9 total cpu time : 63736.1 secs   av.it.:  13.7
      thresh= 0.771E-08 alpha_mix =  0.700 |ddv_scf|^2 =  0.179E-15

      iter #  10 total cpu time : 63740.9 secs   av.it.:  13.8
      thresh= 0.134E-08 alpha_mix =  0.700 |ddv_scf|^2 =  0.563E-16

     End of self-consistent calculation

     Convergence has been achieved 


     Representation #  3 modes #   3  4

     Self-consistent Calculation

      iter #   1 total cpu time : 63745.7 secs   av.it.:   5.0
      thresh= 0.100E-01 alpha_mix =  0.700 |ddv_scf|^2 =  0.158E-07

      iter #   2 total cpu time : 63755.3 secs   av.it.:  13.9
      thresh= 0.126E-04 alpha_mix =  0.700 |ddv_scf|^2 =  0.967E-09

      iter #   3 total cpu time : 63764.8 secs   av.it.:  13.9
      thresh= 0.311E-05 alpha_mix =  0.700 |ddv_scf|^2 =  0.513E-10

      iter #   4 total cpu time : 63774.1 secs   av.it.:  13.4
      thresh= 0.717E-06 alpha_mix =  0.700 |ddv_scf|^2 =  0.312E-12

      iter #   5 total cpu time : 63784.1 secs   av.it.:  14.8
      thresh= 0.559E-07 alpha_mix =  0.700 |ddv_scf|^2 =  0.319E-14

      iter #   6 total cpu time : 63794.1 secs   av.it.:  14.8
      thresh= 0.565E-08 alpha_mix =  0.700 |ddv_scf|^2 =  0.125E-15

      iter #   7 total cpu time : 63804.3 secs   av.it.:  15.1
      thresh= 0.112E-08 alpha_mix =  0.700 |ddv_scf|^2 =  0.107E-16

     End of self-consistent calculation

     Convergence has been achieved 


     Representation #  4 modes #   5  6

     Self-consistent Calculation

      iter #   1 total cpu time : 63811.1 secs   av.it.:   8.4
      thresh= 0.100E-01 alpha_mix =  0.700 |ddv_scf|^2 =  0.196E-05

      iter #   2 total cpu time : 63820.7 secs   av.it.:  14.0
      thresh= 0.140E-03 alpha_mix =  0.700 |ddv_scf|^2 =  0.230E-06

      iter #   3 total cpu time : 63830.3 secs   av.it.:  14.0
      thresh= 0.480E-04 alpha_mix =  0.700 |ddv_scf|^2 =  0.165E-08

      iter #   4 total cpu time : 63840.1 secs   av.it.:  14.6
      thresh= 0.406E-05 alpha_mix =  0.700 |ddv_scf|^2 =  0.136E-10

      iter #   5 total cpu time : 63850.0 secs   av.it.:  14.4
      thresh= 0.368E-06 alpha_mix =  0.700 |ddv_scf|^2 =  0.184E-12

      iter #   6 total cpu time : 63859.6 secs   av.it.:  14.0
      thresh= 0.429E-07 alpha_mix =  0.700 |ddv_scf|^2 =  0.122E-13

      iter #   7 total cpu time : 63869.2 secs   av.it.:  14.0
      thresh= 0.111E-07 alpha_mix =  0.700 |ddv_scf|^2 =  0.809E-15

      iter #   8 total cpu time : 63878.8 secs   av.it.:  14.1
      thresh= 0.284E-08 alpha_mix =  0.700 |ddv_scf|^2 =  0.220E-17

     End of self-consistent calculation

     Convergence has been achieved 
 
     Number of q in the star =    1
     List of q in the star:
          1   0.000000000   0.000000000  -0.864045001

     Diagonalizing the dynamical matrix

     q = (    0.000000000   0.000000000  -0.864045001 ) 

 **************************************************************************
     omega( 1) =       2.410578 [THz] =      80.408235 [cm-1]
     omega( 2) =       2.410578 [THz] =      80.408235 [cm-1]
     omega( 3) =       3.061960 [THz] =     102.135986 [cm-1]
     omega( 4) =       4.290669 [THz] =     143.121300 [cm-1]
     omega( 5) =       4.290669 [THz] =     143.121301 [cm-1]
     omega( 6) =       5.318875 [THz] =     177.418558 [cm-1]
 **************************************************************************

     Mode symmetry, C_3v (3m)   point group:

     omega(  1 -  2) =         80.4  [cm-1]   --> E    L_3           
     omega(  3 -  3) =        102.1  [cm-1]   --> A_1  L_1           
     omega(  4 -  5) =        143.1  [cm-1]   --> E    L_3           
     omega(  6 -  6) =        177.4  [cm-1]   --> A_1  L_1           

 **************************************************************************
 
     init_run     :     27.65s CPU     29.50s WALL (      31 calls)
     electrons    :   1720.82s CPU   1912.76s WALL (      31 calls)

     Called by init_run:
     wfcinit      :      0.00s CPU      0.00s WALL (      31 calls)
     potinit      :      2.26s CPU      2.47s WALL (      31 calls)

     Called by electrons:
     c_bands      :   1720.71s CPU   1912.63s WALL (      31 calls)
     v_of_rho     :      0.77s CPU      0.83s WALL (      32 calls)
     newd         :      2.06s CPU      2.07s WALL (      32 calls)

     Called by c_bands:
     init_us_2    :     93.95s CPU     96.09s WALL ( 1063610 calls)
     cegterg      :   1428.75s CPU   1440.31s WALL (   25461 calls)

     Called by *egterg:
     h_psi        :   1268.81s CPU   1280.81s WALL (  433385 calls)
     s_psi        :   2758.05s CPU   2811.25s WALL (34212450 calls)
     g_psi        :      9.71s CPU     10.05s WALL (  384114 calls)
     cdiaghg      :    141.52s CPU    142.41s WALL (  407924 calls)

     Called by h_psi:
     add_vuspsi   :   1433.03s CPU   1431.28s WALL (16859366 calls)

     General routines
     calbec       :   4734.40s CPU   4626.68s WALL (35684037 calls)
     fft          :     66.86s CPU     70.93s WALL (   41936 calls)
     ffts         :     17.90s CPU     19.97s WALL (   78444 calls)
     fftw         :  39226.43s CPU  39450.53s WALL (******** calls)
     interpolate  :      0.13s CPU      0.13s WALL (      63 calls)
     davcio       :     24.59s CPU    232.72s WALL ( 4747784 calls)
 
     Parallel routines
     fft_scatter  :  20809.22s CPU  20769.82s WALL (******** calls)
 
     PHONON       :    17h25m CPU       17h44m WALL

     INITIALIZATION: 
     phq_setup    :      1.88s CPU      2.98s WALL (      32 calls)
     phq_init     :    261.46s CPU    266.74s WALL (      32 calls)
 
     phq_init     :    261.46s CPU    266.74s WALL (      32 calls)
     set_drhoc    :     23.57s CPU     23.57s WALL (      96 calls)
     init_vloc    :      2.88s CPU      2.88s WALL (      32 calls)
     init_us_1    :      7.23s CPU      7.28s WALL (      32 calls)
     newd         :      2.06s CPU      2.07s WALL (      32 calls)
     dvanqq       :     17.68s CPU     17.66s WALL (      32 calls)
     drho         :    181.46s CPU    184.68s WALL (      32 calls)
 
     DYNAMICAL MATRIX:
     dynmat0      :     39.59s CPU     40.62s WALL (      32 calls)
     phqscf       :  60488.97s CPU  61410.12s WALL (      32 calls)
     dynmatrix    :      0.51s CPU      0.65s WALL (      32 calls)
 
     phqscf       :  60488.97s CPU  61410.12s WALL (      32 calls)
     solve_linter :  60424.32s CPU  61336.49s WALL (     184 calls)
     drhodv       :     61.33s CPU     63.72s WALL (     184 calls)
 
     dynmat0      :     39.59s CPU     40.62s WALL (      32 calls)
     dynmat_us    :     23.40s CPU     23.73s WALL (      32 calls)
     d2ionq       :      0.06s CPU      0.07s WALL (      32 calls)
     dynmatcc     :     15.74s CPU     15.76s WALL (      32 calls)
 
     dynmat_us    :     23.40s CPU     23.73s WALL (      32 calls)
     addusdynmat  :      0.00s CPU      0.00s WALL (      32 calls)
 
     phqscf       :  60488.97s CPU  61410.12s WALL (      32 calls)
     solve_linter :  60424.32s CPU  61336.49s WALL (     184 calls)
 
     solve_linter :  60424.32s CPU  61336.49s WALL (     184 calls)
     dvqpsi_us    :    264.94s CPU    269.10s WALL (   72186 calls)
     ortho        :    363.90s CPU    366.99s WALL (  926914 calls)
     cgsolve      :  53757.03s CPU  54337.71s WALL (  926914 calls)
     incdrhoscf   :   2947.95s CPU   2979.81s WALL (  926914 calls)
     addusddens   :    143.69s CPU    144.36s WALL (    2453 calls)
     vpsifft      :   2316.03s CPU   2338.27s WALL (  853405 calls)
     dv_of_drho   :     67.87s CPU     71.09s WALL (    2355 calls)
     mix_pot      :     17.36s CPU     52.97s WALL (    2277 calls)
     psymdvscf    :     43.56s CPU     47.52s WALL (    1271 calls)
     newdq        :    130.70s CPU    131.16s WALL (    2277 calls)
     adddvscf     :    132.42s CPU    132.90s WALL (  854728 calls)
     drhodvus     :      0.27s CPU      0.46s WALL (     184 calls)
 
     dvqpsi_us    :    264.94s CPU    269.10s WALL (   72186 calls)
     dvqpsi_us_on :     53.91s CPU     53.98s WALL (   72186 calls)
 
     cgsolve      :  53757.03s CPU  54337.71s WALL (  926914 calls)
     ch_psi       :  52274.33s CPU  52894.08s WALL (16425981 calls)
 
     ch_psi       :  52274.33s CPU  52894.08s WALL (16425981 calls)
     h_psiq       :  47140.58s CPU  47686.65s WALL (16425981 calls)
     last         :   5030.49s CPU   5073.94s WALL (16425981 calls)
 
     h_psiq       :  47140.58s CPU  47686.65s WALL (16425981 calls)
     firstfft     :  25843.27s CPU  26235.15s WALL (******** calls)
     secondfft    :  15461.90s CPU  15541.19s WALL (******** calls)
     add_vuspsi   :   1433.03s CPU   1431.28s WALL (16859366 calls)
 
     incdrhoscf   :   2947.95s CPU   2979.81s WALL (  926914 calls)
     addusdbec    :    188.10s CPU    185.91s WALL (  998722 calls)
 
     drhodvus     :      0.27s CPU      0.46s WALL (     184 calls)
 
      General routines
     calbec       :   4734.40s CPU   4626.68s WALL (35684037 calls)
     fft          :     66.86s CPU     70.93s WALL (   41936 calls)
     ffts         :     17.90s CPU     19.97s WALL (   78444 calls)
     fftw         :  39226.43s CPU  39450.53s WALL (******** calls)
     cinterpolate :     10.00s CPU     10.75s WALL (    4899 calls)
     davcio       :     24.59s CPU    232.72s WALL ( 4747784 calls)
     write_rec    :      8.27s CPU     40.14s WALL (    2461 calls)
 
TACC: Shutting down parallel environment.
TACC: Shutdown complete. Exiting.
