TACC: Starting up job 2123919
TACC: Setting up parallel environment for MVAPICH ssh-based mpirun.
TACC: Setup complete. Running job script.
TACC: starting parallel tasks...

     Program PWSCF v.5.0.1 starts on 21Aug2014 at 12: 2:22 

     This program is part of the open-source Quantum ESPRESSO suite
     for quantum simulation of materials; please cite
         "P. Giannozzi et al., J. Phys.:Condens. Matter 21 395502 (2009);
          URL http://www.quantum-espresso.org", 
     in publications or presentations arising from this work. More details at
     http://www.quantum-espresso.org/quote.php

     Parallel version (MPI), running on    36 processors
     K-points division:     npool     =    3
     R & G space division:  proc/pool =   12

     Current dimensions of program PWSCF are:
     Max number of different atomic species (ntypx) = 10
     Max number of k-points (npk) =  40000
     Max angular momentum in pseudopotentials (lmaxx) =  3
     Waiting for input...
     Reading input from standard input
Warning: card &IONS ignored
Warning: card ION_DYNAMICS='BFGS', ignored
Warning: card / ignored
Warning: card &CELL ignored
Warning: card CELL_DYNAMICS='BFGS', ignored
Warning: card PRESS=0.D0 ignored
Warning: card / ignored

     IMPORTANT: XC functional enforced from input :
     Exchange-correlation      = PBESOL ( 1 410 8 0)
     EXX-fraction              =        0.00
     Any further DFT definition will be discarded
     Please, verify this is what you really want


     Subspace diagonalization in iterative solution of the eigenvalue problem:
     a serial algorithm will be used

 
     Parallelization info
     --------------------
     sticks:   dense  smooth     PW     G-vecs:    dense   smooth      PW
     Min         217      71     21                 7255     1386     230
     Max         218      72     22                 7257     1405     233
     Sum        2613     859    257                87069    16727    2771
 


     bravais-lattice index     =            0
     lattice parameter (alat)  =      11.3554  a.u.
     unit-cell volume          =     350.8895 (a.u.)^3
     number of atoms/cell      =            2
     number of atomic types    =            2
     number of electrons       =        20.00
     number of Kohn-Sham states=           10
     kinetic-energy cutoff     =      50.0000  Ry
     charge density cutoff     =     600.0000  Ry
     convergence threshold     =      1.0E-10
     mixing beta               =       0.7000
     number of iterations used =            8  plain     mixing
     Exchange-correlation      = PBESOL ( 1 410 8 0)
     EXX-fraction              =        0.00

     celldm(1)=  11.355364  celldm(2)=   0.000000  celldm(3)=   0.000000
     celldm(4)=   0.000000  celldm(5)=   0.000000  celldm(6)=   0.000000

     crystal axes: (cart. coord. in units of alat)
               a(1) = (   0.000000  -0.399246   0.578674 )  
               a(2) = (   0.345757   0.199623   0.578674 )  
               a(3) = (  -0.345757   0.199623   0.578674 )  

     reciprocal axes: (cart. coord. in units 2 pi/alat)
               b(1) = (  0.000000 -1.669813  0.576030 )  
               b(2) = (  1.446101  0.834907  0.576030 )  
               b(3) = ( -1.446101  0.834907  0.576030 )  


     PseudoPot. # 1 for Ge read from file:
     /work/02599/asmiller/pseudo/gbrv/pbe_GBRV/ge_pbe_v1.uspp.F.UPF
     MD5 check sum: 1967c161b6db4c4322d63e6c19cf7bb7
     Pseudo is Ultrasoft + core correction, Zval = 14.0
     Generated by new atomic code, or converted to UPF format
     Using radial grid of  873 points,  6 beta functions with: 
                l(1) =   0
                l(2) =   0
                l(3) =   1
                l(4) =   1
                l(5) =   2
                l(6) =   2
     Q(r) pseudized with  8 coefficients,  rinner =    1.400   1.400   1.400
                                                       1.400   1.400

     PseudoPot. # 2 for Te read from file:
     /work/02599/asmiller/pseudo/gbrv/pbe_GBRV/te_pbe_v1.uspp.F.UPF
     MD5 check sum: c319670d6894cc26e93307826a071b75
     Pseudo is Ultrasoft + core correction, Zval =  6.0
     Generated by new atomic code, or converted to UPF format
     Using radial grid of  891 points,  5 beta functions with: 
                l(1) =   0
                l(2) =   0
                l(3) =   1
                l(4) =   1
                l(5) =   2
     Q(r) pseudized with  6 coefficients,  rinner =    1.800   1.800   1.800
                                                       1.800   1.800

     atomic species   valence    mass     pseudopotential
        Ge            14.00    72.63000     Ge( 1.00)
        Te             6.00   127.60000     Te( 1.00)

      6 Sym. Ops. (no inversion) found



   Cartesian axes

     site n.     atom                  positions (alat units)
         1           Ge  tau(   1) = (   0.0000000   0.0000000   0.0105077  )
         2           Te  tau(   2) = (   0.0000000   0.0000000   0.8401424  )

     number of k points=   189

     Number of k-points >= 100: set verbosity='high' to print them.

     Dense  grid:    87069 G-vectors     FFT dimensions: (  64,  64,  64)

     Smooth grid:    16727 G-vectors     FFT dimensions: (  36,  36,  36)

     Largest allocated arrays     est. size (Mb)     dimensions
        Kohn-Sham Wavefunctions         0.03 Mb     (    185,   10)
        NL pseudopotentials             0.09 Mb     (    185,   31)
        Each V/rho on FFT grid          0.38 Mb     (  24576)
        Each G-vector array             0.06 Mb     (   7256)
        G-vector shells                 0.05 Mb     (   6287)
     Largest temporary arrays     est. size (Mb)     dimensions
        Each subspace H/S matrix        0.00 Mb     (  10,  10)
        Each <psi_i|beta_j> matrix      0.00 Mb     (     31,   10)
        Arrays for rho mixing           3.00 Mb     (  24576,   8)

     Check: negative/imaginary core charge=   -0.000002    0.000000

     Initial potential from superposition of free atoms

     starting charge   19.99891, renormalised to   20.00000
     Starting wfc are   13 randomized atomic wfcs

     total cpu time spent up to now is        2.1 secs

     per-process dynamical memory:    56.0 Mb

     Self-consistent Calculation

     iteration #  1     ecut=    50.00 Ry     beta=0.70
     CG style diagonalization
     ethr =  1.00E-02,  avg # of iterations =  2.1

     Threshold (ethr) on eigenvalues was too large:
     Diagonalizing with lowered threshold

     CG style diagonalization
     ethr =  3.59E-05,  avg # of iterations =  2.9

     total cpu time spent up to now is        4.8 secs

     total energy              =    -233.53806804 Ry
     Harris-Foulkes estimate   =    -233.53992512 Ry
     estimated scf accuracy    <       0.00654985 Ry

     iteration #  2     ecut=    50.00 Ry     beta=0.70
     CG style diagonalization
     ethr =  3.27E-05,  avg # of iterations =  4.0

     total cpu time spent up to now is        6.4 secs

     total energy              =    -233.53878087 Ry
     Harris-Foulkes estimate   =    -233.53929361 Ry
     estimated scf accuracy    <       0.00102659 Ry

     iteration #  3     ecut=    50.00 Ry     beta=0.70
     CG style diagonalization
     ethr =  5.13E-06,  avg # of iterations =  3.7

     total cpu time spent up to now is        8.0 secs

     total energy              =    -233.53909497 Ry
     Harris-Foulkes estimate   =    -233.53917204 Ry
     estimated scf accuracy    <       0.00018330 Ry

     iteration #  4     ecut=    50.00 Ry     beta=0.70
     CG style diagonalization
     ethr =  9.17E-07,  avg # of iterations =  3.6

     total cpu time spent up to now is        9.5 secs

     total energy              =    -233.53914075 Ry
     Harris-Foulkes estimate   =    -233.53914066 Ry
     estimated scf accuracy    <       0.00000101 Ry

     iteration #  5     ecut=    50.00 Ry     beta=0.70
     CG style diagonalization
     ethr =  5.04E-09,  avg # of iterations =  6.0

     total cpu time spent up to now is       12.0 secs

     total energy              =    -233.53914454 Ry
     Harris-Foulkes estimate   =    -233.53914467 Ry
     estimated scf accuracy    <       0.00000032 Ry

     iteration #  6     ecut=    50.00 Ry     beta=0.70
     CG style diagonalization
     ethr =  1.60E-09,  avg # of iterations =  3.6

     total cpu time spent up to now is       13.5 secs

     total energy              =    -233.53914459 Ry
     Harris-Foulkes estimate   =    -233.53914459 Ry
     estimated scf accuracy    <       0.00000001 Ry

     iteration #  7     ecut=    50.00 Ry     beta=0.70
     CG style diagonalization
     ethr =  6.79E-11,  avg # of iterations =  4.7

     total cpu time spent up to now is       15.5 secs

     total energy              =    -233.53914460 Ry
     Harris-Foulkes estimate   =    -233.53914460 Ry
     estimated scf accuracy    <          7.1E-09 Ry

     iteration #  8     ecut=    50.00 Ry     beta=0.70
     CG style diagonalization
     ethr =  3.54E-11,  avg # of iterations =  3.7

     total cpu time spent up to now is       17.1 secs

     total energy              =    -233.53914460 Ry
     Harris-Foulkes estimate   =    -233.53914460 Ry
     estimated scf accuracy    <          1.0E-10 Ry

     iteration #  9     ecut=    50.00 Ry     beta=0.70
     CG style diagonalization
     ethr =  5.01E-13,  avg # of iterations =  4.9

     total cpu time spent up to now is       19.1 secs

     End of self-consistent calculation

     Number of k-points >= 100: set verbosity='high' to print the bands.

!    total energy              =    -233.53914460 Ry
     Harris-Foulkes estimate   =    -233.53914460 Ry
     estimated scf accuracy    <          6.0E-12 Ry

     The total energy is the sum of the following terms:

     one-electron contribution =    -138.31612321 Ry
     hartree contribution      =      84.38645945 Ry
     xc contribution           =     -68.45362789 Ry
     ewald contribution        =    -111.15585294 Ry

     convergence has been achieved in   9 iterations

     Forces acting on atoms (Ry/au):

     atom    1 type  1   force =     0.00000000    0.00000000   -0.00010611
     atom    2 type  2   force =     0.00000000    0.00000000    0.00010611

     Total force =     0.000150     Total SCF correction =     0.000012


     entering subroutine stress ...

          total   stress  (Ry/bohr**3)                   (kbar)     P=    1.55
   0.00001153   0.00000000   0.00000000          1.70      0.00      0.00
   0.00000000   0.00001153   0.00000000          0.00      1.70      0.00
   0.00000000   0.00000000   0.00000860          0.00      0.00      1.27


     Writing output data file GeTe_d.save
 
     init_run     :      1.64s CPU      1.78s WALL (       1 calls)
     electrons    :     16.49s CPU     17.00s WALL (       1 calls)
     forces       :      0.47s CPU      0.47s WALL (       1 calls)
     stress       :      1.02s CPU      1.03s WALL (       1 calls)

     Called by init_run:
     wfcinit      :      0.35s CPU      0.37s WALL (       1 calls)
     potinit      :      0.20s CPU      0.20s WALL (       1 calls)

     Called by electrons:
     c_bands      :     13.36s CPU     13.66s WALL (      10 calls)
     sum_band     :      2.17s CPU      2.19s WALL (      10 calls)
     v_of_rho     :      0.24s CPU      0.24s WALL (      10 calls)
     newd         :      0.57s CPU      0.57s WALL (      10 calls)
     mix_rho      :      0.03s CPU      0.03s WALL (      10 calls)

     Called by c_bands:
     init_us_2    :      0.11s CPU      0.13s WALL (    1449 calls)
     ccgdiagg     :     11.25s CPU     11.42s WALL (     630 calls)
     wfcrot       :      2.36s CPU      2.39s WALL (     567 calls)

     Called by *cgdiagg:
     h_psi        :      9.52s CPU      9.85s WALL (   20410 calls)
     s_psi        :      0.55s CPU      0.62s WALL (   40253 calls)
     cdiaghg      :      0.05s CPU      0.05s WALL (     567 calls)

     Called by h_psi:
     add_vuspsi   :      0.30s CPU      0.34s WALL (   20410 calls)

     General routines
     calbec       :      2.03s CPU      1.95s WALL (   41009 calls)
     fft          :      0.31s CPU      0.30s WALL (     185 calls)
     ffts         :      0.01s CPU      0.01s WALL (      20 calls)
     fftw         :      7.43s CPU      7.65s WALL (   57704 calls)
     interpolate  :      0.05s CPU      0.04s WALL (      20 calls)
     davcio       :      0.00s CPU      0.10s WALL (    2079 calls)
 
     Parallel routines
     fft_scatter  :      4.00s CPU      4.07s WALL (   57909 calls)
 
     PWSCF        :    20.08s CPU        25.99s WALL

 
   This run was terminated on:  12: 2:48  21Aug2014            

=------------------------------------------------------------------------------=
   JOB DONE.
=------------------------------------------------------------------------------=
TACC: Shutting down parallel environment.
TACC: Shutdown complete. Exiting.
