TACC: Starting up job 2153773
TACC: Setting up parallel environment for MVAPICH ssh-based mpirun.
TACC: Setup complete. Running job script.
TACC: starting parallel tasks...

     Program PWSCF v.5.0.1 starts on  7Sep2014 at 14:58:10 

     This program is part of the open-source Quantum ESPRESSO suite
     for quantum simulation of materials; please cite
         "P. Giannozzi et al., J. Phys.:Condens. Matter 21 395502 (2009);
          URL http://www.quantum-espresso.org", 
     in publications or presentations arising from this work. More details at
     http://www.quantum-espresso.org/quote.php

     Parallel version (MPI), running on    36 processors
     K-points division:     npool     =    3
     R & G space division:  proc/pool =   12

     Current dimensions of program PWSCF are:
     Max number of different atomic species (ntypx) = 10
     Max number of k-points (npk) =  40000
     Max angular momentum in pseudopotentials (lmaxx) =  3
     Waiting for input...
     Reading input from standard input
Warning: card &IONS ignored
Warning: card ION_DYNAMICS='BFGS', ignored
Warning: card / ignored
Warning: card &CELL ignored
Warning: card CELL_DYNAMICS='BFGS', ignored
Warning: card PRESS=0.D0 ignored
Warning: card / ignored

     IMPORTANT: XC functional enforced from input :
     Exchange-correlation      = PBESOL ( 1 410 8 0)
     EXX-fraction              =        0.00
     Any further DFT definition will be discarded
     Please, verify this is what you really want


     Subspace diagonalization in iterative solution of the eigenvalue problem:
     a serial algorithm will be used

 
     Parallelization info
     --------------------
     sticks:   dense  smooth     PW     G-vecs:    dense   smooth      PW
     Min         217      71     21                 7259     1382     230
     Max         218      72     22                 7262     1408     233
     Sum        2613     859    257                87129    16739    2771
 


     bravais-lattice index     =            0
     lattice parameter (alat)  =      11.3565  a.u.
     unit-cell volume          =     350.9948 (a.u.)^3
     number of atoms/cell      =            2
     number of atomic types    =            2
     number of electrons       =        20.00
     number of Kohn-Sham states=           10
     kinetic-energy cutoff     =      50.0000  Ry
     charge density cutoff     =     600.0000  Ry
     convergence threshold     =      1.0E-10
     mixing beta               =       0.7000
     number of iterations used =            8  plain     mixing
     Exchange-correlation      = PBESOL ( 1 410 8 0)
     EXX-fraction              =        0.00

     celldm(1)=  11.356500  celldm(2)=   0.000000  celldm(3)=   0.000000
     celldm(4)=   0.000000  celldm(5)=   0.000000  celldm(6)=   0.000000

     crystal axes: (cart. coord. in units of alat)
               a(1) = (   0.000000  -0.399246   0.578674 )  
               a(2) = (   0.345757   0.199623   0.578674 )  
               a(3) = (  -0.345757   0.199623   0.578674 )  

     reciprocal axes: (cart. coord. in units 2 pi/alat)
               b(1) = (  0.000000 -1.669813  0.576030 )  
               b(2) = (  1.446101  0.834907  0.576030 )  
               b(3) = ( -1.446101  0.834907  0.576030 )  


     PseudoPot. # 1 for Ge read from file:
     /work/02599/asmiller/pseudo/gbrv/pbe_GBRV/ge_pbe_v1.uspp.F.UPF
     MD5 check sum: 1967c161b6db4c4322d63e6c19cf7bb7
     Pseudo is Ultrasoft + core correction, Zval = 14.0
     Generated by new atomic code, or converted to UPF format
     Using radial grid of  873 points,  6 beta functions with: 
                l(1) =   0
                l(2) =   0
                l(3) =   1
                l(4) =   1
                l(5) =   2
                l(6) =   2
     Q(r) pseudized with  8 coefficients,  rinner =    1.400   1.400   1.400
                                                       1.400   1.400

     PseudoPot. # 2 for Te read from file:
     /work/02599/asmiller/pseudo/gbrv/pbe_GBRV/te_pbe_v1.uspp.F.UPF
     MD5 check sum: c319670d6894cc26e93307826a071b75
     Pseudo is Ultrasoft + core correction, Zval =  6.0
     Generated by new atomic code, or converted to UPF format
     Using radial grid of  891 points,  5 beta functions with: 
                l(1) =   0
                l(2) =   0
                l(3) =   1
                l(4) =   1
                l(5) =   2
     Q(r) pseudized with  6 coefficients,  rinner =    1.800   1.800   1.800
                                                       1.800   1.800

     atomic species   valence    mass     pseudopotential
        Ge            14.00    72.63000     Ge( 1.00)
        Te             6.00   127.60000     Te( 1.00)

      6 Sym. Ops. (no inversion) found



   Cartesian axes

     site n.     atom                  positions (alat units)
         1           Ge  tau(   1) = (   0.0000000   0.0000000   0.0105077  )
         2           Te  tau(   2) = (   0.0000000   0.0000000   0.8401424  )

     number of k points=   189

     Number of k-points >= 100: set verbosity='high' to print them.

     Dense  grid:    87129 G-vectors     FFT dimensions: (  64,  64,  64)

     Smooth grid:    16739 G-vectors     FFT dimensions: (  36,  36,  36)

     Largest allocated arrays     est. size (Mb)     dimensions
        Kohn-Sham Wavefunctions         0.03 Mb     (    185,   10)
        NL pseudopotentials             0.09 Mb     (    185,   31)
        Each V/rho on FFT grid          0.38 Mb     (  24576)
        Each G-vector array             0.06 Mb     (   7260)
        G-vector shells                 0.05 Mb     (   6233)
     Largest temporary arrays     est. size (Mb)     dimensions
        Each subspace H/S matrix        0.00 Mb     (  10,  10)
        Each <psi_i|beta_j> matrix      0.00 Mb     (     31,   10)
        Arrays for rho mixing           3.00 Mb     (  24576,   8)

     Check: negative/imaginary core charge=   -0.000002    0.000000

     Initial potential from superposition of free atoms

     starting charge   19.99891, renormalised to   20.00000
     Starting wfc are   13 randomized atomic wfcs

     total cpu time spent up to now is        2.1 secs

     per-process dynamical memory:    56.0 Mb

     Self-consistent Calculation

     iteration #  1     ecut=    50.00 Ry     beta=0.70
     CG style diagonalization
     ethr =  1.00E-02,  avg # of iterations =  2.1

     Threshold (ethr) on eigenvalues was too large:
     Diagonalizing with lowered threshold

     CG style diagonalization
     ethr =  3.60E-05,  avg # of iterations =  2.9

     total cpu time spent up to now is        4.7 secs

     total energy              =    -233.53807135 Ry
     Harris-Foulkes estimate   =    -233.53992965 Ry
     estimated scf accuracy    <       0.00655106 Ry

     iteration #  2     ecut=    50.00 Ry     beta=0.70
     CG style diagonalization
     ethr =  3.28E-05,  avg # of iterations =  4.0

     total cpu time spent up to now is        6.4 secs

     total energy              =    -233.53878208 Ry
     Harris-Foulkes estimate   =    -233.53929371 Ry
     estimated scf accuracy    <       0.00102444 Ry

     iteration #  3     ecut=    50.00 Ry     beta=0.70
     CG style diagonalization
     ethr =  5.12E-06,  avg # of iterations =  3.6

     total cpu time spent up to now is        8.0 secs

     total energy              =    -233.53909706 Ry
     Harris-Foulkes estimate   =    -233.53917385 Ry
     estimated scf accuracy    <       0.00018279 Ry

     iteration #  4     ecut=    50.00 Ry     beta=0.70
     CG style diagonalization
     ethr =  9.14E-07,  avg # of iterations =  3.6

     total cpu time spent up to now is        9.6 secs

     total energy              =    -233.53914237 Ry
     Harris-Foulkes estimate   =    -233.53914228 Ry
     estimated scf accuracy    <       0.00000099 Ry

     iteration #  5     ecut=    50.00 Ry     beta=0.70
     CG style diagonalization
     ethr =  4.94E-09,  avg # of iterations =  6.0

     total cpu time spent up to now is       12.1 secs

     total energy              =    -233.53914625 Ry
     Harris-Foulkes estimate   =    -233.53914640 Ry
     estimated scf accuracy    <       0.00000037 Ry

     iteration #  6     ecut=    50.00 Ry     beta=0.70
     CG style diagonalization
     ethr =  1.83E-09,  avg # of iterations =  3.5

     total cpu time spent up to now is       13.7 secs

     total energy              =    -233.53914629 Ry
     Harris-Foulkes estimate   =    -233.53914630 Ry
     estimated scf accuracy    <       0.00000002 Ry

     iteration #  7     ecut=    50.00 Ry     beta=0.70
     CG style diagonalization
     ethr =  9.65E-11,  avg # of iterations =  4.5

     total cpu time spent up to now is       15.6 secs

     total energy              =    -233.53914631 Ry
     Harris-Foulkes estimate   =    -233.53914631 Ry
     estimated scf accuracy    <          7.6E-09 Ry

     iteration #  8     ecut=    50.00 Ry     beta=0.70
     CG style diagonalization
     ethr =  3.81E-11,  avg # of iterations =  3.7

     total cpu time spent up to now is       17.2 secs

     total energy              =    -233.53914631 Ry
     Harris-Foulkes estimate   =    -233.53914631 Ry
     estimated scf accuracy    <          1.6E-10 Ry

     iteration #  9     ecut=    50.00 Ry     beta=0.70
     CG style diagonalization
     ethr =  7.75E-13,  avg # of iterations =  4.8

     total cpu time spent up to now is       19.2 secs

     End of self-consistent calculation

     Number of k-points >= 100: set verbosity='high' to print the bands.

!    total energy              =    -233.53914631 Ry
     Harris-Foulkes estimate   =    -233.53914631 Ry
     estimated scf accuracy    <          1.2E-11 Ry

     The total energy is the sum of the following terms:

     one-electron contribution =    -138.33330713 Ry
     hartree contribution      =      84.39217381 Ry
     xc contribution           =     -68.45327456 Ry
     ewald contribution        =    -111.14473843 Ry

     convergence has been achieved in   9 iterations

     Forces acting on atoms (Ry/au):

     atom    1 type  1   force =     0.00000000    0.00000000   -0.00007405
     atom    2 type  2   force =     0.00000000    0.00000000    0.00007405

     Total force =     0.000105     Total SCF correction =     0.000017
     SCF correction compared to forces is large: reduce conv_thr to get better values


     entering subroutine stress ...

          total   stress  (Ry/bohr**3)                   (kbar)     P=    1.38
   0.00001034   0.00000000   0.00000000          1.52      0.00      0.00
   0.00000000   0.00001034   0.00000000          0.00      1.52      0.00
   0.00000000   0.00000000   0.00000750          0.00      0.00      1.10


     Writing output data file GeTe_d.save
 
     init_run     :      1.70s CPU      1.78s WALL (       1 calls)
     electrons    :     16.39s CPU     17.10s WALL (       1 calls)
     forces       :      0.46s CPU      0.47s WALL (       1 calls)
     stress       :      1.00s CPU      1.01s WALL (       1 calls)

     Called by init_run:
     wfcinit      :      0.36s CPU      0.36s WALL (       1 calls)
     potinit      :      0.18s CPU      0.18s WALL (       1 calls)

     Called by electrons:
     c_bands      :     13.26s CPU     13.48s WALL (      10 calls)
     sum_band     :      2.16s CPU      2.18s WALL (      10 calls)
     v_of_rho     :      0.24s CPU      0.24s WALL (      10 calls)
     newd         :      0.56s CPU      0.56s WALL (      10 calls)
     mix_rho      :      0.02s CPU      0.03s WALL (      10 calls)

     Called by c_bands:
     init_us_2    :      0.14s CPU      0.13s WALL (    1449 calls)
     ccgdiagg     :     11.01s CPU     11.11s WALL (     630 calls)
     wfcrot       :      2.38s CPU      2.44s WALL (     567 calls)

     Called by *cgdiagg:
     h_psi        :      9.86s CPU      9.91s WALL (   20200 calls)
     s_psi        :      0.54s CPU      0.62s WALL (   39833 calls)
     cdiaghg      :      0.06s CPU      0.05s WALL (     567 calls)

     Called by h_psi:
     add_vuspsi   :      0.27s CPU      0.33s WALL (   20200 calls)

     General routines
     calbec       :      1.66s CPU      1.71s WALL (   40589 calls)
     fft          :      0.26s CPU      0.30s WALL (     185 calls)
     ffts         :      0.00s CPU      0.01s WALL (      20 calls)
     fftw         :      7.85s CPU      7.76s WALL (   57284 calls)
     interpolate  :      0.03s CPU      0.04s WALL (      20 calls)
     davcio       :      0.01s CPU      0.10s WALL (    2079 calls)
 
     Parallel routines
     fft_scatter  :      4.21s CPU      4.23s WALL (   57489 calls)
 
     PWSCF        :    20.01s CPU        32.66s WALL

 
   This run was terminated on:  14:58:43   7Sep2014            

=------------------------------------------------------------------------------=
   JOB DONE.
=------------------------------------------------------------------------------=
TACC: Shutting down parallel environment.
TACC: Shutdown complete. Exiting.
