TACC: Starting up job 2153773
TACC: Setting up parallel environment for MVAPICH ssh-based mpirun.
TACC: Setup complete. Running job script.
TACC: starting parallel tasks...

     Program PHONON v.5.0.1 starts on  7Sep2014 at 14:58:47 

     This program is part of the open-source Quantum ESPRESSO suite
     for quantum simulation of materials; please cite
         "P. Giannozzi et al., J. Phys.:Condens. Matter 21 395502 (2009);
          URL http://www.quantum-espresso.org", 
     in publications or presentations arising from this work. More details at
     http://www.quantum-espresso.org/quote.php

     Parallel version (MPI), running on    36 processors
     K-points division:     npool     =    3
     R & G space division:  proc/pool =   12

     Ultrasoft (Vanderbilt) Pseudopotentials

   Info: using nr1, nr2, nr3 values from input

   Info: using nr1s, nr2s, nr3s values from input

     IMPORTANT: XC functional enforced from input :
     Exchange-correlation      = PBESOL ( 1 410 8 0)
     EXX-fraction              =        0.00
     Any further DFT definition will be discarded
     Please, verify this is what you really want

 
     Parallelization info
     --------------------
     sticks:   dense  smooth     PW     G-vecs:    dense   smooth      PW
     Min         217      71     21                 7259     1382     230
     Max         218      72     22                 7262     1408     233
     Sum        2613     859    257                87129    16739    2771
 

     Check: negative/imaginary core charge=   -0.000002    0.000000


     Dynamical matrices for ( 6, 6, 6)  uniform grid of q-points
     (  32q-points):
       N         xq(1)         xq(2)         xq(3) 
       1   0.000000000   0.000000000   0.000000000
       2  -0.241016795   0.139151112   0.096005000
       3  -0.482033590   0.278302223   0.192010000
       4   0.723050384  -0.417453335  -0.288015000
       5   0.000000000   0.278302223   0.192010000
       6  -0.241016795   0.417453335   0.288015000
       7   0.964067179  -0.278302223  -0.192010000
       8   0.723050384  -0.139151112  -0.096005000
       9   0.482033590   0.000000000   0.000000000
      10   0.000000000   0.556604446   0.384020000
      11   1.205083974  -0.139151112  -0.096005000
      12   0.964067179   0.000000000   0.000000000
      13   0.000000000  -0.834906669  -0.576030000
      14   0.000000000   0.000000000   0.288015000
      15  -0.241016795   0.139151112   0.384020000
      16   0.964067179  -0.556604446  -0.096005000
      17   0.723050384  -0.417453335   0.000000000
      18   0.482033590  -0.278302223   0.096005000
      19   0.000000000   0.278302223   0.480025000
      20   1.205083974  -0.417453335   0.000000000
      21   0.964067179  -0.278302223   0.096005000
      22   0.723050384  -0.139151112   0.192010000
      23   0.000000000  -1.113208892  -0.480025000
      24  -0.241016795  -0.974057781  -0.384020000
      25  -0.482033590  -0.834906669  -0.288015000
      26   0.000000000  -0.834906669  -0.288015000
      27   0.000000000   0.000000000   0.576030000
      28   1.205083974  -0.695755558   0.096005000
      29   0.964067179  -0.556604446   0.192010000
      30   0.000000000  -1.391511115  -0.384020000
      31  -0.241016795  -1.252360004  -0.288015000
      32   0.000000000   0.000000000  -0.864045001

     Calculation of q =    0.0000000   0.0000000   0.0000000

                                                                                

     bravais-lattice index     =            0
     lattice parameter (alat)  =      11.3565  a.u.
     unit-cell volume          =     350.9948 (a.u.)^3
     number of atoms/cell      =            2
     number of atomic types    =            2
     kinetic-energy cut-off    =      50.0000  Ry
     charge density cut-off    =     600.0000  Ry
     convergence threshold     =      1.0E-16
     beta                      =       0.7000
     number of iterations used =            4
     Exchange-correlation      = PBESOL ( 1 410 8 0)
     EXX-fraction              =        0.00


     celldm(1)=   11.35650  celldm(2)=    0.00000  celldm(3)=    0.00000
     celldm(4)=    0.00000  celldm(5)=    0.00000  celldm(6)=    0.00000

     crystal axes: (cart. coord. in units of alat)
               a(1) = (  0.0000 -0.3992  0.5787 )  
               a(2) = (  0.3458  0.1996  0.5787 )  
               a(3) = ( -0.3458  0.1996  0.5787 )  

     reciprocal axes: (cart. coord. in units 2 pi/alat)
               b(1) = (  0.0000 -1.6698  0.5760 )  
               b(2) = (  1.4461  0.8349  0.5760 )  
               b(3) = ( -1.4461  0.8349  0.5760 )  


     Atoms inside the unit cell: 

   Cartesian axes

     site n.  atom      mass           positions (alat units)
        1        Ge  72.6300   tau( 1) = (    0.00000    0.00000    0.01051  )
        2        Te 127.6000   tau( 2) = (    0.00000    0.00000    0.84014  )

     Computing dynamical matrix for 
                    q = (   0.0000000   0.0000000   0.0000000 )
 
      7 Sym.Ops. (with q -> -q+G )


     G cutoff = 1960.1103  (   7260 G-vectors)     FFT grid: ( 64, 64, 64)
     G cutoff =  653.3701  (   1396 G-vectors)  smooth grid: ( 36, 36, 36)
     number of k points=   189

     PseudoPot. # 1 for Ge read from file:
     /work/02599/asmiller/pseudo/gbrv/pbe_GBRV/ge_pbe_v1.uspp.F.UPF
     MD5 check sum: 48aaa9fc4bb44e29d138cf8697c43b9a
     Pseudo is Ultrasoft + core correction, Zval = 14.0
     Generated by new atomic code, or converted to UPF format
     Using radial grid of  873 points,  6 beta functions with: 
                l(1) =   0
                l(2) =   0
                l(3) =   1
                l(4) =   1
                l(5) =   2
                l(6) =   2
     Q(r) pseudized with  8 coefficients,  rinner =    1.400   1.400   1.400
                                                       1.400   1.400

     PseudoPot. # 2 for Te read from file:
     /work/02599/asmiller/pseudo/gbrv/pbe_GBRV/te_pbe_v1.uspp.F.UPF
     MD5 check sum: 749656373d74338a59c146dbd702c29e
     Pseudo is Ultrasoft + core correction, Zval =  6.0
     Generated by new atomic code, or converted to UPF format
     Using radial grid of  891 points,  5 beta functions with: 
                l(1) =   0
                l(2) =   0
                l(3) =   1
                l(4) =   1
                l(5) =   2
     Q(r) pseudized with  6 coefficients,  rinner =    1.800   1.800   1.800
                                                       1.800   1.800


     Electric field:
     Dielectric constant
     Born effective charges in two ways 


     Atomic displacements:
     There are   4 irreducible representations

     Representation     1      1 modes -A_1  L_1 To be done

     Representation     2      1 modes -A_1  L_1 To be done

     Representation     3      2 modes -E    L_3 To be done

     Representation     4      2 modes -E    L_3 To be done



     Alpha used in Ewald sum =   2.8000
     PHONON       :     6.44s CPU         8.78s WALL


     Electric Fields Calculation

      iter #   1 total cpu time :    40.7 secs   av.it.:   6.8
      thresh= 0.100E-01 alpha_mix =  0.700 |ddv_scf|^2 =  0.200E-06

      iter #   2 total cpu time :    56.6 secs   av.it.:  16.3
      thresh= 0.447E-04 alpha_mix =  0.700 |ddv_scf|^2 =  0.100E-06

      iter #   3 total cpu time :    71.5 secs   av.it.:  14.8
      thresh= 0.316E-04 alpha_mix =  0.700 |ddv_scf|^2 =  0.679E-09

      iter #   4 total cpu time :    87.4 secs   av.it.:  16.3
      thresh= 0.260E-05 alpha_mix =  0.700 |ddv_scf|^2 =  0.289E-10

      iter #   5 total cpu time :   103.2 secs   av.it.:  16.3
      thresh= 0.537E-06 alpha_mix =  0.700 |ddv_scf|^2 =  0.113E-11

      iter #   6 total cpu time :   118.1 secs   av.it.:  15.4
      thresh= 0.106E-06 alpha_mix =  0.700 |ddv_scf|^2 =  0.404E-13

      iter #   7 total cpu time :   133.7 secs   av.it.:  15.8
      thresh= 0.201E-07 alpha_mix =  0.700 |ddv_scf|^2 =  0.131E-14

      iter #   8 total cpu time :   149.4 secs   av.it.:  16.3
      thresh= 0.362E-08 alpha_mix =  0.700 |ddv_scf|^2 =  0.151E-16

     End of electric fields calculation

          Dielectric constant in cartesian axis 

          (      65.466107800       0.000000000       0.000000000 )
          (       0.000000000      65.466107943       0.000000000 )
          (       0.000000000       0.000000000      75.561789116 )

          Effective charges (d Force / dE) in cartesian axis

           atom      1   Ge 
      Ex  (        6.75535        0.00000        0.00000 )
      Ey  (        0.00000        6.75535        0.00000 )
      Ez  (        0.00000        0.00000        4.86934 )
           atom      2   Te 
      Ex  (       -7.19179        0.00000        0.00000 )
      Ey  (        0.00000       -7.19179        0.00000 )
      Ez  (        0.00000        0.00000       -4.90141 )


     Representation #  1 mode #   1

     Self-consistent Calculation

      iter #   1 total cpu time :   158.2 secs   av.it.:   8.5
      thresh= 0.100E-01 alpha_mix =  0.700 |ddv_scf|^2 =  0.741E-05

      iter #   2 total cpu time :   162.7 secs   av.it.:  13.1
      thresh= 0.272E-03 alpha_mix =  0.700 |ddv_scf|^2 =  0.830E-06

      iter #   3 total cpu time :   167.2 secs   av.it.:  13.0
      thresh= 0.911E-04 alpha_mix =  0.700 |ddv_scf|^2 =  0.745E-08

      iter #   4 total cpu time :   172.0 secs   av.it.:  13.5
      thresh= 0.863E-05 alpha_mix =  0.700 |ddv_scf|^2 =  0.642E-09

      iter #   5 total cpu time :   176.7 secs   av.it.:  13.9
      thresh= 0.253E-05 alpha_mix =  0.700 |ddv_scf|^2 =  0.147E-09

      iter #   6 total cpu time :   181.2 secs   av.it.:  13.0
      thresh= 0.121E-05 alpha_mix =  0.700 |ddv_scf|^2 =  0.126E-11

      iter #   7 total cpu time :   185.8 secs   av.it.:  13.2
      thresh= 0.112E-06 alpha_mix =  0.700 |ddv_scf|^2 =  0.897E-13

      iter #   8 total cpu time :   190.6 secs   av.it.:  13.1
      thresh= 0.300E-07 alpha_mix =  0.700 |ddv_scf|^2 =  0.652E-15

      iter #   9 total cpu time :   195.1 secs   av.it.:  12.9
      thresh= 0.255E-08 alpha_mix =  0.700 |ddv_scf|^2 =  0.267E-16

     End of self-consistent calculation

     Convergence has been achieved 


     Representation #  2 mode #   2

     Self-consistent Calculation

      iter #   1 total cpu time :   198.1 secs   av.it.:   5.0
      thresh= 0.100E-01 alpha_mix =  0.700 |ddv_scf|^2 =  0.546E-07

      iter #   2 total cpu time :   202.6 secs   av.it.:  13.2
      thresh= 0.234E-04 alpha_mix =  0.700 |ddv_scf|^2 =  0.747E-08

      iter #   3 total cpu time :   207.3 secs   av.it.:  13.4
      thresh= 0.864E-05 alpha_mix =  0.700 |ddv_scf|^2 =  0.948E-09

      iter #   4 total cpu time :   211.8 secs   av.it.:  13.1
      thresh= 0.308E-05 alpha_mix =  0.700 |ddv_scf|^2 =  0.117E-09

      iter #   5 total cpu time :   216.4 secs   av.it.:  13.1
      thresh= 0.108E-05 alpha_mix =  0.700 |ddv_scf|^2 =  0.290E-12

      iter #   6 total cpu time :   220.9 secs   av.it.:  12.9
      thresh= 0.538E-07 alpha_mix =  0.700 |ddv_scf|^2 =  0.144E-13

      iter #   7 total cpu time :   225.5 secs   av.it.:  13.6
      thresh= 0.120E-07 alpha_mix =  0.700 |ddv_scf|^2 =  0.433E-15

      iter #   8 total cpu time :   230.3 secs   av.it.:  13.7
      thresh= 0.208E-08 alpha_mix =  0.700 |ddv_scf|^2 =  0.694E-17

     End of self-consistent calculation

     Convergence has been achieved 


     Representation #  3 modes #   3  4

     Self-consistent Calculation

      iter #   1 total cpu time :   235.5 secs   av.it.:   4.9
      thresh= 0.100E-01 alpha_mix =  0.700 |ddv_scf|^2 =  0.118E-07

      iter #   2 total cpu time :   245.2 secs   av.it.:  14.3
      thresh= 0.109E-04 alpha_mix =  0.700 |ddv_scf|^2 =  0.982E-09

      iter #   3 total cpu time :   254.7 secs   av.it.:  14.0
      thresh= 0.313E-05 alpha_mix =  0.700 |ddv_scf|^2 =  0.683E-10

      iter #   4 total cpu time :   264.3 secs   av.it.:  14.1
      thresh= 0.826E-06 alpha_mix =  0.700 |ddv_scf|^2 =  0.187E-12

      iter #   5 total cpu time :   274.2 secs   av.it.:  14.7
      thresh= 0.433E-07 alpha_mix =  0.700 |ddv_scf|^2 =  0.120E-13

      iter #   6 total cpu time :   284.1 secs   av.it.:  14.8
      thresh= 0.110E-07 alpha_mix =  0.700 |ddv_scf|^2 =  0.597E-16

     End of self-consistent calculation

     Convergence has been achieved 


     Representation #  4 modes #   5  6

     Self-consistent Calculation

      iter #   1 total cpu time :   291.7 secs   av.it.:   8.4
      thresh= 0.100E-01 alpha_mix =  0.700 |ddv_scf|^2 =  0.181E-05

      iter #   2 total cpu time :   301.3 secs   av.it.:  14.1
      thresh= 0.135E-03 alpha_mix =  0.700 |ddv_scf|^2 =  0.196E-06

      iter #   3 total cpu time :   310.9 secs   av.it.:  14.1
      thresh= 0.443E-04 alpha_mix =  0.700 |ddv_scf|^2 =  0.178E-08

      iter #   4 total cpu time :   321.0 secs   av.it.:  15.0
      thresh= 0.422E-05 alpha_mix =  0.700 |ddv_scf|^2 =  0.764E-10

      iter #   5 total cpu time :   331.0 secs   av.it.:  15.0
      thresh= 0.874E-06 alpha_mix =  0.700 |ddv_scf|^2 =  0.759E-12

      iter #   6 total cpu time :   340.5 secs   av.it.:  14.0
      thresh= 0.871E-07 alpha_mix =  0.700 |ddv_scf|^2 =  0.116E-13

      iter #   7 total cpu time :   349.9 secs   av.it.:  13.9
      thresh= 0.108E-07 alpha_mix =  0.700 |ddv_scf|^2 =  0.233E-15

      iter #   8 total cpu time :   359.7 secs   av.it.:  14.6
      thresh= 0.153E-08 alpha_mix =  0.700 |ddv_scf|^2 =  0.253E-17

     End of self-consistent calculation

     Convergence has been achieved 
 
     Number of q in the star =    1
     List of q in the star:
          1   0.000000000   0.000000000   0.000000000

          Dielectric constant in cartesian axis 

          (      65.466107800       0.000000000       0.000000000 )
          (       0.000000000      65.466107943       0.000000000 )
          (       0.000000000       0.000000000      75.561789116 )

          Effective charges (d Force / dE) in cartesian axis

           atom      1   Ge 
      Ex  (        6.75535        0.00000        0.00000 )
      Ey  (        0.00000        6.75535        0.00000 )
      Ez  (        0.00000        0.00000        4.86934 )
           atom      2   Te 
      Ex  (       -7.19179        0.00000        0.00000 )
      Ey  (        0.00000       -7.19179        0.00000 )
      Ez  (        0.00000        0.00000       -4.90141 )

          Effective charges (d P / du) in cartesian axis 

           atom      1   Ge 
      Px  (        7.00761        0.00000        0.00000 )
      Py  (        0.00000        7.00761        0.00000 )
      Pz  (        0.00000        0.00000        4.82139 )
           atom      2   Te 
      Px  (       -6.94977        0.00000        0.00000 )
      Py  (        0.00000       -6.94977        0.00000 )
      Pz  (        0.00000        0.00000       -4.96285 )

     Diagonalizing the dynamical matrix

     q = (    0.000000000   0.000000000   0.000000000 ) 

 **************************************************************************
     omega( 1) =      -0.015054 [THz] =      -0.502145 [cm-1]
     omega( 2) =      -0.015054 [THz] =      -0.502145 [cm-1]
     omega( 3) =       0.058962 [THz] =       1.966772 [cm-1]
     omega( 4) =       2.146953 [THz] =      71.614630 [cm-1]
     omega( 5) =       2.146953 [THz] =      71.614630 [cm-1]
     omega( 6) =       3.509329 [THz] =     117.058628 [cm-1]
 **************************************************************************

     Mode symmetry, C_3v (3m)   point group:

     omega(  1 -  2) =         -0.5  [cm-1]   --> E    L_3        I+R
     omega(  3 -  3) =          2.0  [cm-1]   --> A_1  L_1        I+R
     omega(  4 -  5) =         71.6  [cm-1]   --> E    L_3        I+R
     omega(  6 -  6) =        117.1  [cm-1]   --> A_1  L_1        I+R

 **************************************************************************

     Calculation of q =   -0.2410168   0.1391511   0.0960050
 
     Parallelization info
     --------------------
     sticks:   dense  smooth     PW     G-vecs:    dense   smooth      PW
     Min         217      71     22                 7259     1384     245
     Max         218      72     23                 7262     1407     247
     Sum        2613     859    273                87129    16739    2951
 


     bravais-lattice index     =            0
     lattice parameter (alat)  =      11.3565  a.u.
     unit-cell volume          =     350.9948 (a.u.)^3
     number of atoms/cell      =            2
     number of atomic types    =            2
     number of electrons       =        20.00
     number of Kohn-Sham states=           10
     kinetic-energy cutoff     =      50.0000  Ry
     charge density cutoff     =     600.0000  Ry
     Exchange-correlation      = PBESOL ( 1 410 8 0)
     EXX-fraction              =        0.00

     celldm(1)=  11.356500  celldm(2)=   0.000000  celldm(3)=   0.000000
     celldm(4)=   0.000000  celldm(5)=   0.000000  celldm(6)=   0.000000

     crystal axes: (cart. coord. in units of alat)
               a(1) = (   0.000000  -0.399246   0.578674 )  
               a(2) = (   0.345757   0.199623   0.578674 )  
               a(3) = (  -0.345757   0.199623   0.578674 )  

     reciprocal axes: (cart. coord. in units 2 pi/alat)
               b(1) = (  0.000000 -1.669813  0.576030 )  
               b(2) = (  1.446101  0.834907  0.576030 )  
               b(3) = ( -1.446101  0.834907  0.576030 )  


     PseudoPot. # 1 for Ge read from file:
     /work/02599/asmiller/pseudo/gbrv/pbe_GBRV/ge_pbe_v1.uspp.F.UPF
     MD5 check sum: 48aaa9fc4bb44e29d138cf8697c43b9a
     Pseudo is Ultrasoft + core correction, Zval = 14.0
     Generated by new atomic code, or converted to UPF format
     Using radial grid of  873 points,  6 beta functions with: 
                l(1) =   0
                l(2) =   0
                l(3) =   1
                l(4) =   1
                l(5) =   2
                l(6) =   2
     Q(r) pseudized with  8 coefficients,  rinner =    1.400   1.400   1.400
                                                       1.400   1.400

     PseudoPot. # 2 for Te read from file:
     /work/02599/asmiller/pseudo/gbrv/pbe_GBRV/te_pbe_v1.uspp.F.UPF
     MD5 check sum: 749656373d74338a59c146dbd702c29e
     Pseudo is Ultrasoft + core correction, Zval =  6.0
     Generated by new atomic code, or converted to UPF format
     Using radial grid of  891 points,  5 beta functions with: 
                l(1) =   0
                l(2) =   0
                l(3) =   1
                l(4) =   1
                l(5) =   2
     Q(r) pseudized with  6 coefficients,  rinner =    1.800   1.800   1.800
                                                       1.800   1.800

     atomic species   valence    mass     pseudopotential
        Ge            14.00    72.63000     Ge( 1.00)
        Te             6.00   127.60000     Te( 1.00)

      6 Sym. Ops. (no inversion) found



   Cartesian axes

     site n.     atom                  positions (alat units)
         1           Ge  tau(   1) = (   0.0000000   0.0000000   0.0105077  )
         2           Te  tau(   2) = (   0.0000000   0.0000000   0.8401424  )

     number of k points=  1872

     Number of k-points >= 100: set verbosity='high' to print them.

     Dense  grid:    87129 G-vectors     FFT dimensions: (  64,  64,  64)

     Smooth grid:    16739 G-vectors     FFT dimensions: (  36,  36,  36)

     Largest allocated arrays     est. size (Mb)     dimensions
        Kohn-Sham Wavefunctions         0.03 Mb     (    184,   10)
        NL pseudopotentials             0.09 Mb     (    184,   31)
        Each V/rho on FFT grid          0.38 Mb     (  24576)
        Each G-vector array             0.06 Mb     (   7260)
        G-vector shells                 0.05 Mb     (   6182)
     Largest temporary arrays     est. size (Mb)     dimensions
        Auxiliary wavefunctions         0.11 Mb     (    184,   40)
        Each subspace H/S matrix        0.02 Mb     (  40,  40)
        Each <psi_i|beta_j> matrix      0.00 Mb     (     31,   10)

     Check: negative/imaginary core charge=   -0.000002    0.000000

     The potential is recalculated from file :
     ./_ph0/GeTe_d.save/charge-density.dat

     Starting wfc are   13 atomic wfcs

     total cpu time spent up to now is        1.4 secs

     per-process dynamical memory:    57.6 Mb

     Band Structure Calculation
     Davidson diagonalization with overlap

     ethr =  5.00E-11,  avg # of iterations = 16.1

     total cpu time spent up to now is       51.4 secs

     End of band structure calculation

     Number of k-points >= 100: set verbosity='high' to print the bands.

     Writing output data file GeTe_d.save

                                                                                

     bravais-lattice index     =            0
     lattice parameter (alat)  =      11.3565  a.u.
     unit-cell volume          =     350.9948 (a.u.)^3
     number of atoms/cell      =            2
     number of atomic types    =            2
     kinetic-energy cut-off    =      50.0000  Ry
     charge density cut-off    =     600.0000  Ry
     convergence threshold     =      1.0E-16
     beta                      =       0.7000
     number of iterations used =            4
     Exchange-correlation      = PBESOL ( 1 410 8 0)
     EXX-fraction              =        0.00


     celldm(1)=   11.35650  celldm(2)=    0.00000  celldm(3)=    0.00000
     celldm(4)=    0.00000  celldm(5)=    0.00000  celldm(6)=    0.00000

     crystal axes: (cart. coord. in units of alat)
               a(1) = (  0.0000 -0.3992  0.5787 )  
               a(2) = (  0.3458  0.1996  0.5787 )  
               a(3) = ( -0.3458  0.1996  0.5787 )  

     reciprocal axes: (cart. coord. in units 2 pi/alat)
               b(1) = (  0.0000 -1.6698  0.5760 )  
               b(2) = (  1.4461  0.8349  0.5760 )  
               b(3) = ( -1.4461  0.8349  0.5760 )  


     Atoms inside the unit cell: 

   Cartesian axes

     site n.  atom      mass           positions (alat units)
        1        Ge  72.6300   tau( 1) = (    0.00000    0.00000    0.01051  )
        2        Te 127.6000   tau( 2) = (    0.00000    0.00000    0.84014  )

     Computing dynamical matrix for 
                    q = (  -0.2410168   0.1391511   0.0960050 )
 
      2 Sym.Ops. (no q -> -q+G )


     G cutoff = 1960.1103  (   7260 G-vectors)     FFT grid: ( 64, 64, 64)
     G cutoff =  653.3701  (   1395 G-vectors)  smooth grid: ( 36, 36, 36)
     number of k points=  1872

     PseudoPot. # 1 for Ge read from file:
     /work/02599/asmiller/pseudo/gbrv/pbe_GBRV/ge_pbe_v1.uspp.F.UPF
     MD5 check sum: 48aaa9fc4bb44e29d138cf8697c43b9a
     Pseudo is Ultrasoft + core correction, Zval = 14.0
     Generated by new atomic code, or converted to UPF format
     Using radial grid of  873 points,  6 beta functions with: 
                l(1) =   0
                l(2) =   0
                l(3) =   1
                l(4) =   1
                l(5) =   2
                l(6) =   2
     Q(r) pseudized with  8 coefficients,  rinner =    1.400   1.400   1.400
                                                       1.400   1.400

     PseudoPot. # 2 for Te read from file:
     /work/02599/asmiller/pseudo/gbrv/pbe_GBRV/te_pbe_v1.uspp.F.UPF
     MD5 check sum: 749656373d74338a59c146dbd702c29e
     Pseudo is Ultrasoft + core correction, Zval =  6.0
     Generated by new atomic code, or converted to UPF format
     Using radial grid of  891 points,  5 beta functions with: 
                l(1) =   0
                l(2) =   0
                l(3) =   1
                l(4) =   1
                l(5) =   2
     Q(r) pseudized with  6 coefficients,  rinner =    1.800   1.800   1.800
                                                       1.800   1.800


     Atomic displacements:
     There are   6 irreducible representations

     Representation     1      1 modes -A' To be done

     Representation     2      1 modes -A' To be done

     Representation     3      1 modes -A' To be done

     Representation     4      1 modes -A' To be done

     Representation     5      1 modes -A'' To be done

     Representation     6      1 modes -A'' To be done



     Alpha used in Ewald sum =   2.8000
     PHONON       :  6m47.22s CPU     7m 3.30s WALL



     Representation #  1 mode #   1

     Self-consistent Calculation

      iter #   1 total cpu time :   439.1 secs   av.it.:   8.7
      thresh= 0.100E-01 alpha_mix =  0.700 |ddv_scf|^2 =  0.373E-02

      iter #   2 total cpu time :   458.3 secs   av.it.:  11.3
      thresh= 0.611E-02 alpha_mix =  0.700 |ddv_scf|^2 =  0.714E+00

      iter #   3 total cpu time :   476.3 secs   av.it.:  10.5
      thresh= 0.100E-01 alpha_mix =  0.700 |ddv_scf|^2 =  0.126E-05

      iter #   4 total cpu time :   498.6 secs   av.it.:  13.7
      thresh= 0.112E-03 alpha_mix =  0.700 |ddv_scf|^2 =  0.949E-06

      iter #   5 total cpu time :   519.2 secs   av.it.:  12.5
      thresh= 0.974E-04 alpha_mix =  0.700 |ddv_scf|^2 =  0.118E-07

      iter #   6 total cpu time :   540.9 secs   av.it.:  13.3
      thresh= 0.108E-04 alpha_mix =  0.700 |ddv_scf|^2 =  0.105E-06

      iter #   7 total cpu time :   554.7 secs   av.it.:   7.4
      thresh= 0.323E-04 alpha_mix =  0.700 |ddv_scf|^2 =  0.636E-08

      iter #   8 total cpu time :   573.7 secs   av.it.:  11.3
      thresh= 0.798E-05 alpha_mix =  0.700 |ddv_scf|^2 =  0.123E-10

      iter #   9 total cpu time :   594.5 secs   av.it.:  12.7
      thresh= 0.350E-06 alpha_mix =  0.700 |ddv_scf|^2 =  0.845E-11

      iter #  10 total cpu time :   613.6 secs   av.it.:  11.3
      thresh= 0.291E-06 alpha_mix =  0.700 |ddv_scf|^2 =  0.530E-12

      iter #  11 total cpu time :   631.6 secs   av.it.:  10.6
      thresh= 0.728E-07 alpha_mix =  0.700 |ddv_scf|^2 =  0.198E-14

      iter #  12 total cpu time :   653.6 secs   av.it.:  13.5
      thresh= 0.445E-08 alpha_mix =  0.700 |ddv_scf|^2 =  0.882E-15

      iter #  13 total cpu time :   673.2 secs   av.it.:  11.7
      thresh= 0.297E-08 alpha_mix =  0.700 |ddv_scf|^2 =  0.146E-13

      iter #  14 total cpu time :   689.0 secs   av.it.:   9.0
      thresh= 0.121E-07 alpha_mix =  0.700 |ddv_scf|^2 =  0.159E-16

     End of self-consistent calculation

     Convergence has been achieved 


     Representation #  2 mode #   2

     Self-consistent Calculation

      iter #   1 total cpu time :   701.5 secs   av.it.:   6.0
      thresh= 0.100E-01 alpha_mix =  0.700 |ddv_scf|^2 =  0.222E-02

      iter #   2 total cpu time :   720.6 secs   av.it.:  11.2
      thresh= 0.471E-02 alpha_mix =  0.700 |ddv_scf|^2 =  0.423E+00

      iter #   3 total cpu time :   738.1 secs   av.it.:  10.1
      thresh= 0.100E-01 alpha_mix =  0.700 |ddv_scf|^2 =  0.462E-06

      iter #   4 total cpu time :   758.3 secs   av.it.:  12.2
      thresh= 0.679E-04 alpha_mix =  0.700 |ddv_scf|^2 =  0.221E-07

      iter #   5 total cpu time :   779.7 secs   av.it.:  13.1
      thresh= 0.149E-04 alpha_mix =  0.700 |ddv_scf|^2 =  0.507E-08

      iter #   6 total cpu time :   798.2 secs   av.it.:  11.0
      thresh= 0.712E-05 alpha_mix =  0.700 |ddv_scf|^2 =  0.429E-08

      iter #   7 total cpu time :   812.5 secs   av.it.:   7.8
      thresh= 0.655E-05 alpha_mix =  0.700 |ddv_scf|^2 =  0.350E-09

      iter #   8 total cpu time :   831.4 secs   av.it.:  11.3
      thresh= 0.187E-05 alpha_mix =  0.700 |ddv_scf|^2 =  0.331E-10

      iter #   9 total cpu time :   850.3 secs   av.it.:  11.3
      thresh= 0.575E-06 alpha_mix =  0.700 |ddv_scf|^2 =  0.522E-12

      iter #  10 total cpu time :   867.9 secs   av.it.:  10.3
      thresh= 0.723E-07 alpha_mix =  0.700 |ddv_scf|^2 =  0.163E-13

      iter #  11 total cpu time :   886.1 secs   av.it.:  10.7
      thresh= 0.128E-07 alpha_mix =  0.700 |ddv_scf|^2 =  0.940E-15

      iter #  12 total cpu time :   905.4 secs   av.it.:  11.5
      thresh= 0.307E-08 alpha_mix =  0.700 |ddv_scf|^2 =  0.713E-16

     End of self-consistent calculation

     Convergence has been achieved 


     Representation #  3 mode #   3

     Self-consistent Calculation

      iter #   1 total cpu time :   916.5 secs   av.it.:   5.2
      thresh= 0.100E-01 alpha_mix =  0.700 |ddv_scf|^2 =  0.456E-04

      iter #   2 total cpu time :   935.5 secs   av.it.:  11.3
      thresh= 0.675E-03 alpha_mix =  0.700 |ddv_scf|^2 =  0.869E-02

      iter #   3 total cpu time :   948.7 secs   av.it.:   7.0
      thresh= 0.932E-02 alpha_mix =  0.700 |ddv_scf|^2 =  0.110E-07

      iter #   4 total cpu time :   971.4 secs   av.it.:  14.0
      thresh= 0.105E-04 alpha_mix =  0.700 |ddv_scf|^2 =  0.730E-08

      iter #   5 total cpu time :   992.4 secs   av.it.:  12.6
      thresh= 0.854E-05 alpha_mix =  0.700 |ddv_scf|^2 =  0.305E-08

      iter #   6 total cpu time :  1009.1 secs   av.it.:   9.5
      thresh= 0.552E-05 alpha_mix =  0.700 |ddv_scf|^2 =  0.108E-07

      iter #   7 total cpu time :  1026.3 secs   av.it.:  10.0
      thresh= 0.104E-04 alpha_mix =  0.700 |ddv_scf|^2 =  0.818E-11

      iter #   8 total cpu time :  1049.1 secs   av.it.:  14.0
      thresh= 0.286E-06 alpha_mix =  0.700 |ddv_scf|^2 =  0.196E-10

      iter #   9 total cpu time :  1068.1 secs   av.it.:  11.4
      thresh= 0.443E-06 alpha_mix =  0.700 |ddv_scf|^2 =  0.130E-10

      iter #  10 total cpu time :  1086.9 secs   av.it.:  11.2
      thresh= 0.361E-06 alpha_mix =  0.700 |ddv_scf|^2 =  0.217E-12

      iter #  11 total cpu time :  1107.6 secs   av.it.:  12.5
      thresh= 0.465E-07 alpha_mix =  0.700 |ddv_scf|^2 =  0.191E-12

      iter #  12 total cpu time :  1126.6 secs   av.it.:  11.4
      thresh= 0.436E-07 alpha_mix =  0.700 |ddv_scf|^2 =  0.692E-12

      iter #  13 total cpu time :  1141.6 secs   av.it.:   8.3
      thresh= 0.832E-07 alpha_mix =  0.700 |ddv_scf|^2 =  0.528E-14

      iter #  14 total cpu time :  1160.7 secs   av.it.:  11.4
      thresh= 0.727E-08 alpha_mix =  0.700 |ddv_scf|^2 =  0.664E-16

     End of self-consistent calculation

     Convergence has been achieved 


     Representation #  4 mode #   4

     Self-consistent Calculation

      iter #   1 total cpu time :  1177.3 secs   av.it.:   9.0
      thresh= 0.100E-01 alpha_mix =  0.700 |ddv_scf|^2 =  0.956E-02

      iter #   2 total cpu time :  1196.4 secs   av.it.:  11.3
      thresh= 0.978E-02 alpha_mix =  0.700 |ddv_scf|^2 =  0.183E+01

      iter #   3 total cpu time :  1215.3 secs   av.it.:  11.2
      thresh= 0.100E-01 alpha_mix =  0.700 |ddv_scf|^2 =  0.328E-05

      iter #   4 total cpu time :  1236.9 secs   av.it.:  13.3
      thresh= 0.181E-03 alpha_mix =  0.700 |ddv_scf|^2 =  0.171E-05

      iter #   5 total cpu time :  1257.6 secs   av.it.:  12.5
      thresh= 0.131E-03 alpha_mix =  0.700 |ddv_scf|^2 =  0.277E-07

      iter #   6 total cpu time :  1278.8 secs   av.it.:  12.8
      thresh= 0.167E-04 alpha_mix =  0.700 |ddv_scf|^2 =  0.636E-06

      iter #   7 total cpu time :  1294.1 secs   av.it.:   8.6
      thresh= 0.797E-04 alpha_mix =  0.700 |ddv_scf|^2 =  0.914E-08

      iter #   8 total cpu time :  1312.7 secs   av.it.:  11.1
      thresh= 0.956E-05 alpha_mix =  0.700 |ddv_scf|^2 =  0.482E-10

      iter #   9 total cpu time :  1332.0 secs   av.it.:  11.6
      thresh= 0.694E-06 alpha_mix =  0.700 |ddv_scf|^2 =  0.977E-11

      iter #  10 total cpu time :  1351.2 secs   av.it.:  11.4
      thresh= 0.312E-06 alpha_mix =  0.700 |ddv_scf|^2 =  0.231E-12

      iter #  11 total cpu time :  1369.7 secs   av.it.:  11.0
      thresh= 0.481E-07 alpha_mix =  0.700 |ddv_scf|^2 =  0.306E-14

      iter #  12 total cpu time :  1390.7 secs   av.it.:  12.7
      thresh= 0.553E-08 alpha_mix =  0.700 |ddv_scf|^2 =  0.773E-15

      iter #  13 total cpu time :  1410.8 secs   av.it.:  12.1
      thresh= 0.278E-08 alpha_mix =  0.700 |ddv_scf|^2 =  0.143E-13

      iter #  14 total cpu time :  1426.6 secs   av.it.:   9.0
      thresh= 0.119E-07 alpha_mix =  0.700 |ddv_scf|^2 =  0.560E-16

     End of self-consistent calculation

     Convergence has been achieved 


     Representation #  5 mode #   5

     Self-consistent Calculation

      iter #   1 total cpu time :  1437.5 secs   av.it.:   5.0
      thresh= 0.100E-01 alpha_mix =  0.700 |ddv_scf|^2 =  0.527E-07

      iter #   2 total cpu time :  1459.4 secs   av.it.:  13.4
      thresh= 0.230E-04 alpha_mix =  0.700 |ddv_scf|^2 =  0.414E-08

      iter #   3 total cpu time :  1481.7 secs   av.it.:  13.5
      thresh= 0.644E-05 alpha_mix =  0.700 |ddv_scf|^2 =  0.272E-09

      iter #   4 total cpu time :  1503.8 secs   av.it.:  13.5
      thresh= 0.165E-05 alpha_mix =  0.700 |ddv_scf|^2 =  0.142E-11

      iter #   5 total cpu time :  1526.3 secs   av.it.:  13.8
      thresh= 0.119E-06 alpha_mix =  0.700 |ddv_scf|^2 =  0.827E-13

      iter #   6 total cpu time :  1548.8 secs   av.it.:  13.8
      thresh= 0.288E-07 alpha_mix =  0.700 |ddv_scf|^2 =  0.182E-14

      iter #   7 total cpu time :  1571.1 secs   av.it.:  13.7
      thresh= 0.427E-08 alpha_mix =  0.700 |ddv_scf|^2 =  0.296E-16

     End of self-consistent calculation

     Convergence has been achieved 


     Representation #  6 mode #   6

     Self-consistent Calculation

      iter #   1 total cpu time :  1586.8 secs   av.it.:   8.4
      thresh= 0.100E-01 alpha_mix =  0.700 |ddv_scf|^2 =  0.744E-05

      iter #   2 total cpu time :  1608.4 secs   av.it.:  13.2
      thresh= 0.273E-03 alpha_mix =  0.700 |ddv_scf|^2 =  0.840E-06

      iter #   3 total cpu time :  1629.8 secs   av.it.:  13.1
      thresh= 0.916E-04 alpha_mix =  0.700 |ddv_scf|^2 =  0.750E-08

      iter #   4 total cpu time :  1652.3 secs   av.it.:  13.9
      thresh= 0.866E-05 alpha_mix =  0.700 |ddv_scf|^2 =  0.322E-09

      iter #   5 total cpu time :  1674.4 secs   av.it.:  13.5
      thresh= 0.179E-05 alpha_mix =  0.700 |ddv_scf|^2 =  0.358E-11

      iter #   6 total cpu time :  1696.3 secs   av.it.:  13.4
      thresh= 0.189E-06 alpha_mix =  0.700 |ddv_scf|^2 =  0.123E-12

      iter #   7 total cpu time :  1717.1 secs   av.it.:  12.6
      thresh= 0.350E-07 alpha_mix =  0.700 |ddv_scf|^2 =  0.187E-14

      iter #   8 total cpu time :  1739.6 secs   av.it.:  13.8
      thresh= 0.432E-08 alpha_mix =  0.700 |ddv_scf|^2 =  0.188E-16

     End of self-consistent calculation

     Convergence has been achieved 
 
     Number of q in the star =    3
     List of q in the star:
          1  -0.241016795   0.139151112   0.096005000
          2   0.241016795   0.139151112   0.096005000
          3   0.000000000  -0.278302223   0.096005000
     In addition there is the -q list: 
          1   0.241016795  -0.139151112  -0.096005000
          2  -0.241016795  -0.139151112  -0.096005000
          3   0.000000000   0.278302223  -0.096005000

     Diagonalizing the dynamical matrix

     q = (   -0.241016795   0.139151112   0.096005000 ) 

 **************************************************************************
     omega( 1) =       1.223620 [THz] =      40.815563 [cm-1]
     omega( 2) =       1.245533 [THz] =      41.546500 [cm-1]
     omega( 3) =       1.646992 [THz] =      54.937742 [cm-1]
     omega( 4) =       3.581822 [THz] =     119.476713 [cm-1]
     omega( 5) =       3.957949 [THz] =     132.022981 [cm-1]
     omega( 6) =       4.925429 [THz] =     164.294614 [cm-1]
 **************************************************************************

     Mode symmetry, C_s (m)     point group:

     omega(  1 -  1) =         40.8  [cm-1]   --> A''                
     omega(  2 -  2) =         41.5  [cm-1]   --> A'                 
     omega(  3 -  3) =         54.9  [cm-1]   --> A'                 
     omega(  4 -  4) =        119.5  [cm-1]   --> A''                
     omega(  5 -  5) =        132.0  [cm-1]   --> A'                 
     omega(  6 -  6) =        164.3  [cm-1]   --> A'                 

 **************************************************************************

     Calculation of q =   -0.4820336   0.2783022   0.1920100
 
     Parallelization info
     --------------------
     sticks:   dense  smooth     PW     G-vecs:    dense   smooth      PW
     Min         217      71     23                 7259     1384     252
     Max         218      72     24                 7262     1407     254
     Sum        2613     859    277                87129    16739    3035
 


     bravais-lattice index     =            0
     lattice parameter (alat)  =      11.3565  a.u.
     unit-cell volume          =     350.9948 (a.u.)^3
     number of atoms/cell      =            2
     number of atomic types    =            2
     number of electrons       =        20.00
     number of Kohn-Sham states=           10
     kinetic-energy cutoff     =      50.0000  Ry
     charge density cutoff     =     600.0000  Ry
     Exchange-correlation      = PBESOL ( 1 410 8 0)
     EXX-fraction              =        0.00

     celldm(1)=  11.356500  celldm(2)=   0.000000  celldm(3)=   0.000000
     celldm(4)=   0.000000  celldm(5)=   0.000000  celldm(6)=   0.000000

     crystal axes: (cart. coord. in units of alat)
               a(1) = (   0.000000  -0.399246   0.578674 )  
               a(2) = (   0.345757   0.199623   0.578674 )  
               a(3) = (  -0.345757   0.199623   0.578674 )  

     reciprocal axes: (cart. coord. in units 2 pi/alat)
               b(1) = (  0.000000 -1.669813  0.576030 )  
               b(2) = (  1.446101  0.834907  0.576030 )  
               b(3) = ( -1.446101  0.834907  0.576030 )  


     PseudoPot. # 1 for Ge read from file:
     /work/02599/asmiller/pseudo/gbrv/pbe_GBRV/ge_pbe_v1.uspp.F.UPF
     MD5 check sum: 48aaa9fc4bb44e29d138cf8697c43b9a
     Pseudo is Ultrasoft + core correction, Zval = 14.0
     Generated by new atomic code, or converted to UPF format
     Using radial grid of  873 points,  6 beta functions with: 
                l(1) =   0
                l(2) =   0
                l(3) =   1
                l(4) =   1
                l(5) =   2
                l(6) =   2
     Q(r) pseudized with  8 coefficients,  rinner =    1.400   1.400   1.400
                                                       1.400   1.400

     PseudoPot. # 2 for Te read from file:
     /work/02599/asmiller/pseudo/gbrv/pbe_GBRV/te_pbe_v1.uspp.F.UPF
     MD5 check sum: 749656373d74338a59c146dbd702c29e
     Pseudo is Ultrasoft + core correction, Zval =  6.0
     Generated by new atomic code, or converted to UPF format
     Using radial grid of  891 points,  5 beta functions with: 
                l(1) =   0
                l(2) =   0
                l(3) =   1
                l(4) =   1
                l(5) =   2
     Q(r) pseudized with  6 coefficients,  rinner =    1.800   1.800   1.800
                                                       1.800   1.800

     atomic species   valence    mass     pseudopotential
        Ge            14.00    72.63000     Ge( 1.00)
        Te             6.00   127.60000     Te( 1.00)

      6 Sym. Ops. (no inversion) found



   Cartesian axes

     site n.     atom                  positions (alat units)
         1           Ge  tau(   1) = (   0.0000000   0.0000000   0.0105077  )
         2           Te  tau(   2) = (   0.0000000   0.0000000   0.8401424  )

     number of k points=  1872

     Number of k-points >= 100: set verbosity='high' to print them.

     Dense  grid:    87129 G-vectors     FFT dimensions: (  64,  64,  64)

     Smooth grid:    16739 G-vectors     FFT dimensions: (  36,  36,  36)

     Largest allocated arrays     est. size (Mb)     dimensions
        Kohn-Sham Wavefunctions         0.03 Mb     (    196,   10)
        NL pseudopotentials             0.09 Mb     (    196,   31)
        Each V/rho on FFT grid          0.38 Mb     (  24576)
        Each G-vector array             0.06 Mb     (   7260)
        G-vector shells                 0.05 Mb     (   6167)
     Largest temporary arrays     est. size (Mb)     dimensions
        Auxiliary wavefunctions         0.12 Mb     (    196,   40)
        Each subspace H/S matrix        0.02 Mb     (  40,  40)
        Each <psi_i|beta_j> matrix      0.00 Mb     (     31,   10)

     Check: negative/imaginary core charge=   -0.000002    0.000000

     The potential is recalculated from file :
     ./_ph0/GeTe_d.save/charge-density.dat

     Starting wfc are   13 atomic wfcs

     total cpu time spent up to now is       55.3 secs

     per-process dynamical memory:    69.9 Mb

     Band Structure Calculation
     Davidson diagonalization with overlap

     ethr =  5.00E-11,  avg # of iterations = 16.1

     total cpu time spent up to now is      102.9 secs

     End of band structure calculation

     Number of k-points >= 100: set verbosity='high' to print the bands.

     Writing output data file GeTe_d.save

                                                                                

     bravais-lattice index     =            0
     lattice parameter (alat)  =      11.3565  a.u.
     unit-cell volume          =     350.9948 (a.u.)^3
     number of atoms/cell      =            2
     number of atomic types    =            2
     kinetic-energy cut-off    =      50.0000  Ry
     charge density cut-off    =     600.0000  Ry
     convergence threshold     =      1.0E-16
     beta                      =       0.7000
     number of iterations used =            4
     Exchange-correlation      = PBESOL ( 1 410 8 0)
     EXX-fraction              =        0.00


     celldm(1)=   11.35650  celldm(2)=    0.00000  celldm(3)=    0.00000
     celldm(4)=    0.00000  celldm(5)=    0.00000  celldm(6)=    0.00000

     crystal axes: (cart. coord. in units of alat)
               a(1) = (  0.0000 -0.3992  0.5787 )  
               a(2) = (  0.3458  0.1996  0.5787 )  
               a(3) = ( -0.3458  0.1996  0.5787 )  

     reciprocal axes: (cart. coord. in units 2 pi/alat)
               b(1) = (  0.0000 -1.6698  0.5760 )  
               b(2) = (  1.4461  0.8349  0.5760 )  
               b(3) = ( -1.4461  0.8349  0.5760 )  


     Atoms inside the unit cell: 

   Cartesian axes

     site n.  atom      mass           positions (alat units)
        1        Ge  72.6300   tau( 1) = (    0.00000    0.00000    0.01051  )
        2        Te 127.6000   tau( 2) = (    0.00000    0.00000    0.84014  )

     Computing dynamical matrix for 
                    q = (  -0.4820336   0.2783022   0.1920100 )
 
      2 Sym.Ops. (no q -> -q+G )


     G cutoff = 1960.1103  (   7260 G-vectors)     FFT grid: ( 64, 64, 64)
     G cutoff =  653.3701  (   1399 G-vectors)  smooth grid: ( 36, 36, 36)
     number of k points=  1872

     PseudoPot. # 1 for Ge read from file:
     /work/02599/asmiller/pseudo/gbrv/pbe_GBRV/ge_pbe_v1.uspp.F.UPF
     MD5 check sum: 48aaa9fc4bb44e29d138cf8697c43b9a
     Pseudo is Ultrasoft + core correction, Zval = 14.0
     Generated by new atomic code, or converted to UPF format
     Using radial grid of  873 points,  6 beta functions with: 
                l(1) =   0
                l(2) =   0
                l(3) =   1
                l(4) =   1
                l(5) =   2
                l(6) =   2
     Q(r) pseudized with  8 coefficients,  rinner =    1.400   1.400   1.400
                                                       1.400   1.400

     PseudoPot. # 2 for Te read from file:
     /work/02599/asmiller/pseudo/gbrv/pbe_GBRV/te_pbe_v1.uspp.F.UPF
     MD5 check sum: 749656373d74338a59c146dbd702c29e
     Pseudo is Ultrasoft + core correction, Zval =  6.0
     Generated by new atomic code, or converted to UPF format
     Using radial grid of  891 points,  5 beta functions with: 
                l(1) =   0
                l(2) =   0
                l(3) =   1
                l(4) =   1
                l(5) =   2
     Q(r) pseudized with  6 coefficients,  rinner =    1.800   1.800   1.800
                                                       1.800   1.800


     Atomic displacements:
     There are   6 irreducible representations

     Representation     1      1 modes -A' To be done

     Representation     2      1 modes -A' To be done

     Representation     3      1 modes -A' To be done

     Representation     4      1 modes -A' To be done

     Representation     5      1 modes -A'' To be done

     Representation     6      1 modes -A'' To be done



     Alpha used in Ewald sum =   2.8000
     PHONON       : 29m14.60s CPU    29m59.34s WALL



     Representation #  1 mode #   1

     Self-consistent Calculation

      iter #   1 total cpu time :  1815.1 secs   av.it.:   8.7
      thresh= 0.100E-01 alpha_mix =  0.700 |ddv_scf|^2 =  0.142E-03

      iter #   2 total cpu time :  1836.2 secs   av.it.:  12.6
      thresh= 0.119E-02 alpha_mix =  0.700 |ddv_scf|^2 =  0.321E-02

      iter #   3 total cpu time :  1853.3 secs   av.it.:   9.9
      thresh= 0.567E-02 alpha_mix =  0.700 |ddv_scf|^2 =  0.343E-05

      iter #   4 total cpu time :  1874.5 secs   av.it.:  12.8
      thresh= 0.185E-03 alpha_mix =  0.700 |ddv_scf|^2 =  0.464E-06

      iter #   5 total cpu time :  1895.3 secs   av.it.:  12.5
      thresh= 0.681E-04 alpha_mix =  0.700 |ddv_scf|^2 =  0.208E-07

      iter #   6 total cpu time :  1916.3 secs   av.it.:  12.8
      thresh= 0.144E-04 alpha_mix =  0.700 |ddv_scf|^2 =  0.147E-09

      iter #   7 total cpu time :  1938.7 secs   av.it.:  13.8
      thresh= 0.121E-05 alpha_mix =  0.700 |ddv_scf|^2 =  0.198E-10

      iter #   8 total cpu time :  1960.2 secs   av.it.:  13.2
      thresh= 0.444E-06 alpha_mix =  0.700 |ddv_scf|^2 =  0.697E-10

      iter #   9 total cpu time :  1978.5 secs   av.it.:  10.7
      thresh= 0.835E-06 alpha_mix =  0.700 |ddv_scf|^2 =  0.142E-10

      iter #  10 total cpu time :  1997.5 secs   av.it.:  11.4
      thresh= 0.377E-06 alpha_mix =  0.700 |ddv_scf|^2 =  0.627E-12

      iter #  11 total cpu time :  2017.5 secs   av.it.:  12.0
      thresh= 0.792E-07 alpha_mix =  0.700 |ddv_scf|^2 =  0.605E-13

      iter #  12 total cpu time :  2038.5 secs   av.it.:  12.7
      thresh= 0.246E-07 alpha_mix =  0.700 |ddv_scf|^2 =  0.682E-14

      iter #  13 total cpu time :  2060.1 secs   av.it.:  13.2
      thresh= 0.826E-08 alpha_mix =  0.700 |ddv_scf|^2 =  0.612E-15

      iter #  14 total cpu time :  2081.8 secs   av.it.:  13.2
      thresh= 0.247E-08 alpha_mix =  0.700 |ddv_scf|^2 =  0.229E-14

      iter #  15 total cpu time :  2099.8 secs   av.it.:  10.6
      thresh= 0.478E-08 alpha_mix =  0.700 |ddv_scf|^2 =  0.227E-15

      iter #  16 total cpu time :  2118.8 secs   av.it.:  11.3
      thresh= 0.151E-08 alpha_mix =  0.700 |ddv_scf|^2 =  0.172E-15

      iter #  17 total cpu time :  2137.9 secs   av.it.:  11.4
      thresh= 0.131E-08 alpha_mix =  0.700 |ddv_scf|^2 =  0.958E-18

     End of self-consistent calculation

     Convergence has been achieved 


     Representation #  2 mode #   2

     Self-consistent Calculation

      iter #   1 total cpu time :  2149.7 secs   av.it.:   5.5
      thresh= 0.100E-01 alpha_mix =  0.700 |ddv_scf|^2 =  0.689E-04

      iter #   2 total cpu time :  2169.6 secs   av.it.:  11.9
      thresh= 0.830E-03 alpha_mix =  0.700 |ddv_scf|^2 =  0.169E-02

      iter #   3 total cpu time :  2186.6 secs   av.it.:   9.8
      thresh= 0.411E-02 alpha_mix =  0.700 |ddv_scf|^2 =  0.311E-06

      iter #   4 total cpu time :  2207.6 secs   av.it.:  12.8
      thresh= 0.558E-04 alpha_mix =  0.700 |ddv_scf|^2 =  0.381E-07

      iter #   5 total cpu time :  2228.2 secs   av.it.:  12.5
      thresh= 0.195E-04 alpha_mix =  0.700 |ddv_scf|^2 =  0.272E-09

      iter #   6 total cpu time :  2249.6 secs   av.it.:  13.1
      thresh= 0.165E-05 alpha_mix =  0.700 |ddv_scf|^2 =  0.875E-11

      iter #   7 total cpu time :  2272.0 secs   av.it.:  13.9
      thresh= 0.296E-06 alpha_mix =  0.700 |ddv_scf|^2 =  0.760E-11

      iter #   8 total cpu time :  2291.9 secs   av.it.:  11.8
      thresh= 0.276E-06 alpha_mix =  0.700 |ddv_scf|^2 =  0.253E-10

      iter #   9 total cpu time :  2310.2 secs   av.it.:  10.9
      thresh= 0.503E-06 alpha_mix =  0.700 |ddv_scf|^2 =  0.476E-12

      iter #  10 total cpu time :  2328.5 secs   av.it.:  10.8
      thresh= 0.690E-07 alpha_mix =  0.700 |ddv_scf|^2 =  0.232E-14

      iter #  11 total cpu time :  2350.6 secs   av.it.:  13.5
      thresh= 0.482E-08 alpha_mix =  0.700 |ddv_scf|^2 =  0.214E-15

      iter #  12 total cpu time :  2373.1 secs   av.it.:  13.9
      thresh= 0.146E-08 alpha_mix =  0.700 |ddv_scf|^2 =  0.132E-15

      iter #  13 total cpu time :  2394.1 secs   av.it.:  12.8
      thresh= 0.115E-08 alpha_mix =  0.700 |ddv_scf|^2 =  0.409E-17

     End of self-consistent calculation

     Convergence has been achieved 


     Representation #  3 mode #   3

     Self-consistent Calculation

      iter #   1 total cpu time :  2405.1 secs   av.it.:   5.1
      thresh= 0.100E-01 alpha_mix =  0.700 |ddv_scf|^2 =  0.148E-05

      iter #   2 total cpu time :  2425.4 secs   av.it.:  12.2
      thresh= 0.121E-03 alpha_mix =  0.700 |ddv_scf|^2 =  0.346E-04

      iter #   3 total cpu time :  2442.4 secs   av.it.:   9.8
      thresh= 0.588E-03 alpha_mix =  0.700 |ddv_scf|^2 =  0.147E-07

      iter #   4 total cpu time :  2464.2 secs   av.it.:  13.3
      thresh= 0.121E-04 alpha_mix =  0.700 |ddv_scf|^2 =  0.467E-08

      iter #   5 total cpu time :  2485.4 secs   av.it.:  12.8
      thresh= 0.684E-05 alpha_mix =  0.700 |ddv_scf|^2 =  0.147E-09

      iter #   6 total cpu time :  2507.1 secs   av.it.:  13.3
      thresh= 0.121E-05 alpha_mix =  0.700 |ddv_scf|^2 =  0.168E-11

      iter #   7 total cpu time :  2530.0 secs   av.it.:  14.1
      thresh= 0.129E-06 alpha_mix =  0.700 |ddv_scf|^2 =  0.440E-11

      iter #   8 total cpu time :  2548.9 secs   av.it.:  11.2
      thresh= 0.210E-06 alpha_mix =  0.700 |ddv_scf|^2 =  0.728E-11

      iter #   9 total cpu time :  2566.7 secs   av.it.:  10.4
      thresh= 0.270E-06 alpha_mix =  0.700 |ddv_scf|^2 =  0.996E-12

      iter #  10 total cpu time :  2585.6 secs   av.it.:  11.3
      thresh= 0.998E-07 alpha_mix =  0.700 |ddv_scf|^2 =  0.157E-13

      iter #  11 total cpu time :  2607.6 secs   av.it.:  13.5
      thresh= 0.125E-07 alpha_mix =  0.700 |ddv_scf|^2 =  0.645E-14

      iter #  12 total cpu time :  2628.9 secs   av.it.:  12.9
      thresh= 0.803E-08 alpha_mix =  0.700 |ddv_scf|^2 =  0.181E-15

      iter #  13 total cpu time :  2651.5 secs   av.it.:  13.9
      thresh= 0.134E-08 alpha_mix =  0.700 |ddv_scf|^2 =  0.985E-16

     End of self-consistent calculation

     Convergence has been achieved 


     Representation #  4 mode #   4

     Self-consistent Calculation

      iter #   1 total cpu time :  2667.9 secs   av.it.:   8.9
      thresh= 0.100E-01 alpha_mix =  0.700 |ddv_scf|^2 =  0.350E-03

      iter #   2 total cpu time :  2688.6 secs   av.it.:  12.5
      thresh= 0.187E-02 alpha_mix =  0.700 |ddv_scf|^2 =  0.826E-02

      iter #   3 total cpu time :  2705.7 secs   av.it.:   9.9
      thresh= 0.909E-02 alpha_mix =  0.700 |ddv_scf|^2 =  0.621E-05

      iter #   4 total cpu time :  2726.5 secs   av.it.:  12.6
      thresh= 0.249E-03 alpha_mix =  0.700 |ddv_scf|^2 =  0.613E-06

      iter #   5 total cpu time :  2747.2 secs   av.it.:  12.4
      thresh= 0.783E-04 alpha_mix =  0.700 |ddv_scf|^2 =  0.380E-07

      iter #   6 total cpu time :  2767.7 secs   av.it.:  12.4
      thresh= 0.195E-04 alpha_mix =  0.700 |ddv_scf|^2 =  0.503E-09

      iter #   7 total cpu time :  2789.4 secs   av.it.:  13.1
      thresh= 0.224E-05 alpha_mix =  0.700 |ddv_scf|^2 =  0.382E-10

      iter #   8 total cpu time :  2810.3 secs   av.it.:  12.6
      thresh= 0.618E-06 alpha_mix =  0.700 |ddv_scf|^2 =  0.840E-10

      iter #   9 total cpu time :  2828.4 secs   av.it.:  10.6
      thresh= 0.917E-06 alpha_mix =  0.700 |ddv_scf|^2 =  0.110E-10

      iter #  10 total cpu time :  2848.1 secs   av.it.:  11.8
      thresh= 0.332E-06 alpha_mix =  0.700 |ddv_scf|^2 =  0.112E-12

      iter #  11 total cpu time :  2868.9 secs   av.it.:  12.6
      thresh= 0.334E-07 alpha_mix =  0.700 |ddv_scf|^2 =  0.109E-13

      iter #  12 total cpu time :  2890.2 secs   av.it.:  13.0
      thresh= 0.105E-07 alpha_mix =  0.700 |ddv_scf|^2 =  0.229E-14

      iter #  13 total cpu time :  2911.8 secs   av.it.:  13.2
      thresh= 0.479E-08 alpha_mix =  0.700 |ddv_scf|^2 =  0.187E-15

      iter #  14 total cpu time :  2933.4 secs   av.it.:  13.2
      thresh= 0.137E-08 alpha_mix =  0.700 |ddv_scf|^2 =  0.249E-15

      iter #  15 total cpu time :  2952.5 secs   av.it.:  11.4
      thresh= 0.158E-08 alpha_mix =  0.700 |ddv_scf|^2 =  0.123E-15

      iter #  16 total cpu time :  2971.2 secs   av.it.:  11.1
      thresh= 0.111E-08 alpha_mix =  0.700 |ddv_scf|^2 =  0.354E-16

     End of self-consistent calculation

     Convergence has been achieved 


     Representation #  5 mode #   5

     Self-consistent Calculation

      iter #   1 total cpu time :  2982.1 secs   av.it.:   5.0
      thresh= 0.100E-01 alpha_mix =  0.700 |ddv_scf|^2 =  0.630E-07

      iter #   2 total cpu time :  3004.1 secs   av.it.:  13.4
      thresh= 0.251E-04 alpha_mix =  0.700 |ddv_scf|^2 =  0.445E-08

      iter #   3 total cpu time :  3026.3 secs   av.it.:  13.6
      thresh= 0.667E-05 alpha_mix =  0.700 |ddv_scf|^2 =  0.254E-09

      iter #   4 total cpu time :  3048.8 secs   av.it.:  13.7
      thresh= 0.159E-05 alpha_mix =  0.700 |ddv_scf|^2 =  0.303E-11

      iter #   5 total cpu time :  3071.3 secs   av.it.:  13.9
      thresh= 0.174E-06 alpha_mix =  0.700 |ddv_scf|^2 =  0.151E-12

      iter #   6 total cpu time :  3094.0 secs   av.it.:  14.0
      thresh= 0.389E-07 alpha_mix =  0.700 |ddv_scf|^2 =  0.251E-14

      iter #   7 total cpu time :  3116.2 secs   av.it.:  13.6
      thresh= 0.501E-08 alpha_mix =  0.700 |ddv_scf|^2 =  0.868E-16

     End of self-consistent calculation

     Convergence has been achieved 


     Representation #  6 mode #   6

     Self-consistent Calculation

      iter #   1 total cpu time :  3131.8 secs   av.it.:   8.4
      thresh= 0.100E-01 alpha_mix =  0.700 |ddv_scf|^2 =  0.783E-05

      iter #   2 total cpu time :  3153.4 secs   av.it.:  13.1
      thresh= 0.280E-03 alpha_mix =  0.700 |ddv_scf|^2 =  0.953E-06

      iter #   3 total cpu time :  3174.7 secs   av.it.:  13.0
      thresh= 0.976E-04 alpha_mix =  0.700 |ddv_scf|^2 =  0.736E-08

      iter #   4 total cpu time :  3197.2 secs   av.it.:  13.8
      thresh= 0.858E-05 alpha_mix =  0.700 |ddv_scf|^2 =  0.281E-09

      iter #   5 total cpu time :  3219.4 secs   av.it.:  13.6
      thresh= 0.168E-05 alpha_mix =  0.700 |ddv_scf|^2 =  0.573E-11

      iter #   6 total cpu time :  3241.6 secs   av.it.:  13.6
      thresh= 0.239E-06 alpha_mix =  0.700 |ddv_scf|^2 =  0.141E-12

      iter #   7 total cpu time :  3262.2 secs   av.it.:  12.4
      thresh= 0.376E-07 alpha_mix =  0.700 |ddv_scf|^2 =  0.517E-14

      iter #   8 total cpu time :  3284.1 secs   av.it.:  13.3
      thresh= 0.719E-08 alpha_mix =  0.700 |ddv_scf|^2 =  0.170E-16

     End of self-consistent calculation

     Convergence has been achieved 
 
     Number of q in the star =    3
     List of q in the star:
          1  -0.482033590   0.278302223   0.192010000
          2   0.482033590   0.278302223   0.192010000
          3   0.000000000  -0.556604446   0.192010000
     In addition there is the -q list: 
          1   0.482033590  -0.278302223  -0.192010000
          2  -0.482033590  -0.278302223  -0.192010000
          3   0.000000000   0.556604446  -0.192010000

     Diagonalizing the dynamical matrix

     q = (   -0.482033590   0.278302223   0.192010000 ) 

 **************************************************************************
     omega( 1) =       2.192397 [THz] =      73.130484 [cm-1]
     omega( 2) =       2.276267 [THz] =      75.928084 [cm-1]
     omega( 3) =       2.839256 [THz] =      94.707382 [cm-1]
     omega( 4) =       4.103082 [THz] =     136.864093 [cm-1]
     omega( 5) =       4.123358 [THz] =     137.540406 [cm-1]
     omega( 6) =       5.194887 [THz] =     173.282774 [cm-1]
 **************************************************************************

     Mode symmetry, C_s (m)     point group:

     omega(  1 -  1) =         73.1  [cm-1]   --> A''                
     omega(  2 -  2) =         75.9  [cm-1]   --> A'                 
     omega(  3 -  3) =         94.7  [cm-1]   --> A'                 
     omega(  4 -  4) =        136.9  [cm-1]   --> A''                
     omega(  5 -  5) =        137.5  [cm-1]   --> A'                 
     omega(  6 -  6) =        173.3  [cm-1]   --> A'                 

 **************************************************************************

     Calculation of q =    0.7230504  -0.4174533  -0.2880150
 
     Parallelization info
     --------------------
     sticks:   dense  smooth     PW     G-vecs:    dense   smooth      PW
     Min         217      71     25                 7259     1386     281
     Max         218      72     26                 7262     1407     284
     Sum        2613     859    301                87129    16739    3389
 


     bravais-lattice index     =            0
     lattice parameter (alat)  =      11.3565  a.u.
     unit-cell volume          =     350.9948 (a.u.)^3
     number of atoms/cell      =            2
     number of atomic types    =            2
     number of electrons       =        20.00
     number of Kohn-Sham states=           10
     kinetic-energy cutoff     =      50.0000  Ry
     charge density cutoff     =     600.0000  Ry
     Exchange-correlation      = PBESOL ( 1 410 8 0)
     EXX-fraction              =        0.00

     celldm(1)=  11.356500  celldm(2)=   0.000000  celldm(3)=   0.000000
     celldm(4)=   0.000000  celldm(5)=   0.000000  celldm(6)=   0.000000

     crystal axes: (cart. coord. in units of alat)
               a(1) = (   0.000000  -0.399246   0.578674 )  
               a(2) = (   0.345757   0.199623   0.578674 )  
               a(3) = (  -0.345757   0.199623   0.578674 )  

     reciprocal axes: (cart. coord. in units 2 pi/alat)
               b(1) = (  0.000000 -1.669813  0.576030 )  
               b(2) = (  1.446101  0.834907  0.576030 )  
               b(3) = ( -1.446101  0.834907  0.576030 )  


     PseudoPot. # 1 for Ge read from file:
     /work/02599/asmiller/pseudo/gbrv/pbe_GBRV/ge_pbe_v1.uspp.F.UPF
     MD5 check sum: 48aaa9fc4bb44e29d138cf8697c43b9a
     Pseudo is Ultrasoft + core correction, Zval = 14.0
     Generated by new atomic code, or converted to UPF format
     Using radial grid of  873 points,  6 beta functions with: 
                l(1) =   0
                l(2) =   0
                l(3) =   1
                l(4) =   1
                l(5) =   2
                l(6) =   2
     Q(r) pseudized with  8 coefficients,  rinner =    1.400   1.400   1.400
                                                       1.400   1.400

     PseudoPot. # 2 for Te read from file:
     /work/02599/asmiller/pseudo/gbrv/pbe_GBRV/te_pbe_v1.uspp.F.UPF
     MD5 check sum: 749656373d74338a59c146dbd702c29e
     Pseudo is Ultrasoft + core correction, Zval =  6.0
     Generated by new atomic code, or converted to UPF format
     Using radial grid of  891 points,  5 beta functions with: 
                l(1) =   0
                l(2) =   0
                l(3) =   1
                l(4) =   1
                l(5) =   2
     Q(r) pseudized with  6 coefficients,  rinner =    1.800   1.800   1.800
                                                       1.800   1.800

     atomic species   valence    mass     pseudopotential
        Ge            14.00    72.63000     Ge( 1.00)
        Te             6.00   127.60000     Te( 1.00)

      6 Sym. Ops. (no inversion) found



   Cartesian axes

     site n.     atom                  positions (alat units)
         1           Ge  tau(   1) = (   0.0000000   0.0000000   0.0105077  )
         2           Te  tau(   2) = (   0.0000000   0.0000000   0.8401424  )

     number of k points=   952

     Number of k-points >= 100: set verbosity='high' to print them.

     Dense  grid:    87129 G-vectors     FFT dimensions: (  64,  64,  64)

     Smooth grid:    16739 G-vectors     FFT dimensions: (  36,  36,  36)

     Largest allocated arrays     est. size (Mb)     dimensions
        Kohn-Sham Wavefunctions         0.03 Mb     (    185,   10)
        NL pseudopotentials             0.09 Mb     (    185,   31)
        Each V/rho on FFT grid          0.38 Mb     (  24576)
        Each G-vector array             0.06 Mb     (   7260)
        G-vector shells                 0.05 Mb     (   6176)
     Largest temporary arrays     est. size (Mb)     dimensions
        Auxiliary wavefunctions         0.11 Mb     (    185,   40)
        Each subspace H/S matrix        0.02 Mb     (  40,  40)
        Each <psi_i|beta_j> matrix      0.00 Mb     (     31,   10)

     Check: negative/imaginary core charge=   -0.000002    0.000000

     The potential is recalculated from file :
     ./_ph0/GeTe_d.save/charge-density.dat

     Starting wfc are   13 atomic wfcs

     total cpu time spent up to now is      106.6 secs

     per-process dynamical memory:    69.9 Mb

     Band Structure Calculation
     Davidson diagonalization with overlap

     ethr =  5.00E-11,  avg # of iterations = 16.1

     total cpu time spent up to now is      131.2 secs

     End of band structure calculation

     Number of k-points >= 100: set verbosity='high' to print the bands.

     Writing output data file GeTe_d.save

                                                                                

     bravais-lattice index     =            0
     lattice parameter (alat)  =      11.3565  a.u.
     unit-cell volume          =     350.9948 (a.u.)^3
     number of atoms/cell      =            2
     number of atomic types    =            2
     kinetic-energy cut-off    =      50.0000  Ry
     charge density cut-off    =     600.0000  Ry
     convergence threshold     =      1.0E-16
     beta                      =       0.7000
     number of iterations used =            4
     Exchange-correlation      = PBESOL ( 1 410 8 0)
     EXX-fraction              =        0.00


     celldm(1)=   11.35650  celldm(2)=    0.00000  celldm(3)=    0.00000
     celldm(4)=    0.00000  celldm(5)=    0.00000  celldm(6)=    0.00000

     crystal axes: (cart. coord. in units of alat)
               a(1) = (  0.0000 -0.3992  0.5787 )  
               a(2) = (  0.3458  0.1996  0.5787 )  
               a(3) = ( -0.3458  0.1996  0.5787 )  

     reciprocal axes: (cart. coord. in units 2 pi/alat)
               b(1) = (  0.0000 -1.6698  0.5760 )  
               b(2) = (  1.4461  0.8349  0.5760 )  
               b(3) = ( -1.4461  0.8349  0.5760 )  


     Atoms inside the unit cell: 

   Cartesian axes

     site n.  atom      mass           positions (alat units)
        1        Ge  72.6300   tau( 1) = (    0.00000    0.00000    0.01051  )
        2        Te 127.6000   tau( 2) = (    0.00000    0.00000    0.84014  )

     Computing dynamical matrix for 
                    q = (   0.7230504  -0.4174533  -0.2880150 )
 
      3 Sym.Ops. (with q -> -q+G )


     G cutoff = 1960.1103  (   7260 G-vectors)     FFT grid: ( 64, 64, 64)
     G cutoff =  653.3701  (   1392 G-vectors)  smooth grid: ( 36, 36, 36)
     number of k points=   952

     PseudoPot. # 1 for Ge read from file:
     /work/02599/asmiller/pseudo/gbrv/pbe_GBRV/ge_pbe_v1.uspp.F.UPF
     MD5 check sum: 48aaa9fc4bb44e29d138cf8697c43b9a
     Pseudo is Ultrasoft + core correction, Zval = 14.0
     Generated by new atomic code, or converted to UPF format
     Using radial grid of  873 points,  6 beta functions with: 
                l(1) =   0
                l(2) =   0
                l(3) =   1
                l(4) =   1
                l(5) =   2
                l(6) =   2
     Q(r) pseudized with  8 coefficients,  rinner =    1.400   1.400   1.400
                                                       1.400   1.400

     PseudoPot. # 2 for Te read from file:
     /work/02599/asmiller/pseudo/gbrv/pbe_GBRV/te_pbe_v1.uspp.F.UPF
     MD5 check sum: 749656373d74338a59c146dbd702c29e
     Pseudo is Ultrasoft + core correction, Zval =  6.0
     Generated by new atomic code, or converted to UPF format
     Using radial grid of  891 points,  5 beta functions with: 
                l(1) =   0
                l(2) =   0
                l(3) =   1
                l(4) =   1
                l(5) =   2
     Q(r) pseudized with  6 coefficients,  rinner =    1.800   1.800   1.800
                                                       1.800   1.800


     Atomic displacements:
     There are   6 irreducible representations

     Representation     1      1 modes -A' To be done

     Representation     2      1 modes -A' To be done

     Representation     3      1 modes -A' To be done

     Representation     4      1 modes -A' To be done

     Representation     5      1 modes -A'' To be done

     Representation     6      1 modes -A'' To be done



     Alpha used in Ewald sum =   2.8000
     PHONON       : 54m 5.15s CPU    55m17.02s WALL



     Representation #  1 mode #   1

     Self-consistent Calculation

      iter #   1 total cpu time :  3325.3 secs   av.it.:   8.6
      thresh= 0.100E-01 alpha_mix =  0.700 |ddv_scf|^2 =  0.356E-04

      iter #   2 total cpu time :  3336.7 secs   av.it.:  13.3
      thresh= 0.597E-03 alpha_mix =  0.700 |ddv_scf|^2 =  0.133E-03

      iter #   3 total cpu time :  3346.8 secs   av.it.:  11.5
      thresh= 0.115E-02 alpha_mix =  0.700 |ddv_scf|^2 =  0.867E-06

      iter #   4 total cpu time :  3358.0 secs   av.it.:  13.0
      thresh= 0.931E-04 alpha_mix =  0.700 |ddv_scf|^2 =  0.428E-06

      iter #   5 total cpu time :  3368.1 secs   av.it.:  11.5
      thresh= 0.654E-04 alpha_mix =  0.700 |ddv_scf|^2 =  0.272E-07

      iter #   6 total cpu time :  3378.9 secs   av.it.:  12.4
      thresh= 0.165E-04 alpha_mix =  0.700 |ddv_scf|^2 =  0.828E-10

      iter #   7 total cpu time :  3390.6 secs   av.it.:  13.8
      thresh= 0.910E-06 alpha_mix =  0.700 |ddv_scf|^2 =  0.351E-11

      iter #   8 total cpu time :  3402.6 secs   av.it.:  14.1
      thresh= 0.187E-06 alpha_mix =  0.700 |ddv_scf|^2 =  0.597E-12

      iter #   9 total cpu time :  3414.1 secs   av.it.:  13.5
      thresh= 0.773E-07 alpha_mix =  0.700 |ddv_scf|^2 =  0.304E-13

      iter #  10 total cpu time :  3425.2 secs   av.it.:  13.0
      thresh= 0.174E-07 alpha_mix =  0.700 |ddv_scf|^2 =  0.309E-14

      iter #  11 total cpu time :  3436.5 secs   av.it.:  13.1
      thresh= 0.556E-08 alpha_mix =  0.700 |ddv_scf|^2 =  0.369E-14

      iter #  12 total cpu time :  3446.7 secs   av.it.:  11.8
      thresh= 0.608E-08 alpha_mix =  0.700 |ddv_scf|^2 =  0.760E-16

     End of self-consistent calculation

     Convergence has been achieved 


     Representation #  2 mode #   2

     Self-consistent Calculation

      iter #   1 total cpu time :  3453.0 secs   av.it.:   5.4
      thresh= 0.100E-01 alpha_mix =  0.700 |ddv_scf|^2 =  0.119E-04

      iter #   2 total cpu time :  3463.6 secs   av.it.:  12.2
      thresh= 0.344E-03 alpha_mix =  0.700 |ddv_scf|^2 =  0.690E-04

      iter #   3 total cpu time :  3473.2 secs   av.it.:  10.9
      thresh= 0.830E-03 alpha_mix =  0.700 |ddv_scf|^2 =  0.329E-07

      iter #   4 total cpu time :  3484.4 secs   av.it.:  12.9
      thresh= 0.181E-04 alpha_mix =  0.700 |ddv_scf|^2 =  0.203E-07

      iter #   5 total cpu time :  3494.9 secs   av.it.:  12.0
      thresh= 0.142E-04 alpha_mix =  0.700 |ddv_scf|^2 =  0.150E-09

      iter #   6 total cpu time :  3506.3 secs   av.it.:  13.3
      thresh= 0.123E-05 alpha_mix =  0.700 |ddv_scf|^2 =  0.223E-11

      iter #   7 total cpu time :  3518.0 secs   av.it.:  13.8
      thresh= 0.149E-06 alpha_mix =  0.700 |ddv_scf|^2 =  0.111E-12

      iter #   8 total cpu time :  3529.7 secs   av.it.:  13.8
      thresh= 0.333E-07 alpha_mix =  0.700 |ddv_scf|^2 =  0.350E-14

      iter #   9 total cpu time :  3541.6 secs   av.it.:  14.0
      thresh= 0.592E-08 alpha_mix =  0.700 |ddv_scf|^2 =  0.282E-15

      iter #  10 total cpu time :  3553.3 secs   av.it.:  13.7
      thresh= 0.168E-08 alpha_mix =  0.700 |ddv_scf|^2 =  0.648E-16

     End of self-consistent calculation

     Convergence has been achieved 


     Representation #  3 mode #   3

     Self-consistent Calculation

      iter #   1 total cpu time :  3559.1 secs   av.it.:   5.0
      thresh= 0.100E-01 alpha_mix =  0.700 |ddv_scf|^2 =  0.274E-06

      iter #   2 total cpu time :  3570.1 secs   av.it.:  12.8
      thresh= 0.523E-04 alpha_mix =  0.700 |ddv_scf|^2 =  0.121E-05

      iter #   3 total cpu time :  3579.9 secs   av.it.:  11.0
      thresh= 0.110E-03 alpha_mix =  0.700 |ddv_scf|^2 =  0.949E-08

      iter #   4 total cpu time :  3591.1 secs   av.it.:  12.8
      thresh= 0.974E-05 alpha_mix =  0.700 |ddv_scf|^2 =  0.662E-09

      iter #   5 total cpu time :  3602.3 secs   av.it.:  13.0
      thresh= 0.257E-05 alpha_mix =  0.700 |ddv_scf|^2 =  0.945E-09

      iter #   6 total cpu time :  3612.6 secs   av.it.:  11.8
      thresh= 0.307E-05 alpha_mix =  0.700 |ddv_scf|^2 =  0.786E-12

      iter #   7 total cpu time :  3624.7 secs   av.it.:  14.3
      thresh= 0.887E-07 alpha_mix =  0.700 |ddv_scf|^2 =  0.835E-13

      iter #   8 total cpu time :  3636.4 secs   av.it.:  13.8
      thresh= 0.289E-07 alpha_mix =  0.700 |ddv_scf|^2 =  0.451E-14

      iter #   9 total cpu time :  3648.4 secs   av.it.:  14.2
      thresh= 0.672E-08 alpha_mix =  0.700 |ddv_scf|^2 =  0.144E-14

      iter #  10 total cpu time :  3659.3 secs   av.it.:  12.4
      thresh= 0.380E-08 alpha_mix =  0.700 |ddv_scf|^2 =  0.701E-15

      iter #  11 total cpu time :  3670.0 secs   av.it.:  12.3
      thresh= 0.265E-08 alpha_mix =  0.700 |ddv_scf|^2 =  0.238E-16

     End of self-consistent calculation

     Convergence has been achieved 


     Representation #  4 mode #   4

     Self-consistent Calculation

      iter #   1 total cpu time :  3678.9 secs   av.it.:   8.9
      thresh= 0.100E-01 alpha_mix =  0.700 |ddv_scf|^2 =  0.792E-04

      iter #   2 total cpu time :  3690.3 secs   av.it.:  13.2
      thresh= 0.890E-03 alpha_mix =  0.700 |ddv_scf|^2 =  0.344E-03

      iter #   3 total cpu time :  3700.3 secs   av.it.:  11.5
      thresh= 0.185E-02 alpha_mix =  0.700 |ddv_scf|^2 =  0.798E-06

      iter #   4 total cpu time :  3711.5 secs   av.it.:  13.0
      thresh= 0.893E-04 alpha_mix =  0.700 |ddv_scf|^2 =  0.910E-06

      iter #   5 total cpu time :  3721.6 secs   av.it.:  11.5
      thresh= 0.954E-04 alpha_mix =  0.700 |ddv_scf|^2 =  0.302E-07

      iter #   6 total cpu time :  3732.3 secs   av.it.:  12.3
      thresh= 0.174E-04 alpha_mix =  0.700 |ddv_scf|^2 =  0.406E-10

      iter #   7 total cpu time :  3744.1 secs   av.it.:  13.9
      thresh= 0.637E-06 alpha_mix =  0.700 |ddv_scf|^2 =  0.392E-11

      iter #   8 total cpu time :  3755.6 secs   av.it.:  13.6
      thresh= 0.198E-06 alpha_mix =  0.700 |ddv_scf|^2 =  0.304E-12

      iter #   9 total cpu time :  3767.2 secs   av.it.:  13.5
      thresh= 0.551E-07 alpha_mix =  0.700 |ddv_scf|^2 =  0.128E-13

      iter #  10 total cpu time :  3778.6 secs   av.it.:  13.4
      thresh= 0.113E-07 alpha_mix =  0.700 |ddv_scf|^2 =  0.126E-14

      iter #  11 total cpu time :  3789.4 secs   av.it.:  12.4
      thresh= 0.355E-08 alpha_mix =  0.700 |ddv_scf|^2 =  0.123E-15

      iter #  12 total cpu time :  3800.7 secs   av.it.:  13.0
      thresh= 0.111E-08 alpha_mix =  0.700 |ddv_scf|^2 =  0.364E-16

     End of self-consistent calculation

     Convergence has been achieved 


     Representation #  5 mode #   5

     Self-consistent Calculation

      iter #   1 total cpu time :  3806.5 secs   av.it.:   5.0
      thresh= 0.100E-01 alpha_mix =  0.700 |ddv_scf|^2 =  0.678E-07

      iter #   2 total cpu time :  3817.8 secs   av.it.:  13.3
      thresh= 0.260E-04 alpha_mix =  0.700 |ddv_scf|^2 =  0.448E-08

      iter #   3 total cpu time :  3829.3 secs   av.it.:  13.5
      thresh= 0.670E-05 alpha_mix =  0.700 |ddv_scf|^2 =  0.229E-09

      iter #   4 total cpu time :  3840.9 secs   av.it.:  13.6
      thresh= 0.151E-05 alpha_mix =  0.700 |ddv_scf|^2 =  0.230E-11

      iter #   5 total cpu time :  3852.6 secs   av.it.:  13.9
      thresh= 0.152E-06 alpha_mix =  0.700 |ddv_scf|^2 =  0.159E-12

      iter #   6 total cpu time :  3864.5 secs   av.it.:  14.0
      thresh= 0.399E-07 alpha_mix =  0.700 |ddv_scf|^2 =  0.243E-14

      iter #   7 total cpu time :  3876.0 secs   av.it.:  13.5
      thresh= 0.493E-08 alpha_mix =  0.700 |ddv_scf|^2 =  0.116E-15

      iter #   8 total cpu time :  3887.8 secs   av.it.:  14.0
      thresh= 0.108E-08 alpha_mix =  0.700 |ddv_scf|^2 =  0.581E-18

     End of self-consistent calculation

     Convergence has been achieved 


     Representation #  6 mode #   6

     Self-consistent Calculation

      iter #   1 total cpu time :  3896.1 secs   av.it.:   8.4
      thresh= 0.100E-01 alpha_mix =  0.700 |ddv_scf|^2 =  0.802E-05

      iter #   2 total cpu time :  3907.3 secs   av.it.:  13.1
      thresh= 0.283E-03 alpha_mix =  0.700 |ddv_scf|^2 =  0.100E-05

      iter #   3 total cpu time :  3918.4 secs   av.it.:  12.9
      thresh= 0.100E-03 alpha_mix =  0.700 |ddv_scf|^2 =  0.694E-08

      iter #   4 total cpu time :  3929.9 secs   av.it.:  13.6
      thresh= 0.833E-05 alpha_mix =  0.700 |ddv_scf|^2 =  0.124E-09

      iter #   5 total cpu time :  3941.6 secs   av.it.:  13.6
      thresh= 0.112E-05 alpha_mix =  0.700 |ddv_scf|^2 =  0.633E-11

      iter #   6 total cpu time :  3953.1 secs   av.it.:  13.5
      thresh= 0.252E-06 alpha_mix =  0.700 |ddv_scf|^2 =  0.128E-12

      iter #   7 total cpu time :  3963.7 secs   av.it.:  12.1
      thresh= 0.357E-07 alpha_mix =  0.700 |ddv_scf|^2 =  0.689E-14

      iter #   8 total cpu time :  3974.9 secs   av.it.:  13.1
      thresh= 0.830E-08 alpha_mix =  0.700 |ddv_scf|^2 =  0.117E-16

     End of self-consistent calculation

     Convergence has been achieved 
 
     Number of q in the star =    3
     List of q in the star:
          1   0.723050384  -0.417453335  -0.288015000
          2  -0.723050384  -0.417453335  -0.288015000
          3   0.000000000   0.834906669  -0.288015000

     Diagonalizing the dynamical matrix

     q = (    0.723050384  -0.417453335  -0.288015000 ) 

 **************************************************************************
     omega( 1) =       2.638160 [THz] =      87.999552 [cm-1]
     omega( 2) =       3.022189 [THz] =     100.809383 [cm-1]
     omega( 3) =       3.055066 [THz] =     101.906023 [cm-1]
     omega( 4) =       4.089431 [THz] =     136.408737 [cm-1]
     omega( 5) =       4.102224 [THz] =     136.835467 [cm-1]
     omega( 6) =       5.195712 [THz] =     173.310296 [cm-1]
 **************************************************************************

     Mode symmetry, C_s (m)     point group:

     omega(  1 -  1) =         88.0  [cm-1]   --> A''                
     omega(  2 -  2) =        100.8  [cm-1]   --> A'                 
     omega(  3 -  3) =        101.9  [cm-1]   --> A'                 
     omega(  4 -  4) =        136.4  [cm-1]   --> A'                 
     omega(  5 -  5) =        136.8  [cm-1]   --> A''                
     omega(  6 -  6) =        173.3  [cm-1]   --> A'                 

 **************************************************************************

     Calculation of q =    0.0000000   0.2783022   0.1920100
 
     Parallelization info
     --------------------
     sticks:   dense  smooth     PW     G-vecs:    dense   smooth      PW
     Min         217      71     22                 7259     1384     245
     Max         218      72     23                 7262     1407     247
     Sum        2613     859    273                87129    16739    2951
 


     bravais-lattice index     =            0
     lattice parameter (alat)  =      11.3565  a.u.
     unit-cell volume          =     350.9948 (a.u.)^3
     number of atoms/cell      =            2
     number of atomic types    =            2
     number of electrons       =        20.00
     number of Kohn-Sham states=           10
     kinetic-energy cutoff     =      50.0000  Ry
     charge density cutoff     =     600.0000  Ry
     Exchange-correlation      = PBESOL ( 1 410 8 0)
     EXX-fraction              =        0.00

     celldm(1)=  11.356500  celldm(2)=   0.000000  celldm(3)=   0.000000
     celldm(4)=   0.000000  celldm(5)=   0.000000  celldm(6)=   0.000000

     crystal axes: (cart. coord. in units of alat)
               a(1) = (   0.000000  -0.399246   0.578674 )  
               a(2) = (   0.345757   0.199623   0.578674 )  
               a(3) = (  -0.345757   0.199623   0.578674 )  

     reciprocal axes: (cart. coord. in units 2 pi/alat)
               b(1) = (  0.000000 -1.669813  0.576030 )  
               b(2) = (  1.446101  0.834907  0.576030 )  
               b(3) = ( -1.446101  0.834907  0.576030 )  


     PseudoPot. # 1 for Ge read from file:
     /work/02599/asmiller/pseudo/gbrv/pbe_GBRV/ge_pbe_v1.uspp.F.UPF
     MD5 check sum: 48aaa9fc4bb44e29d138cf8697c43b9a
     Pseudo is Ultrasoft + core correction, Zval = 14.0
     Generated by new atomic code, or converted to UPF format
     Using radial grid of  873 points,  6 beta functions with: 
                l(1) =   0
                l(2) =   0
                l(3) =   1
                l(4) =   1
                l(5) =   2
                l(6) =   2
     Q(r) pseudized with  8 coefficients,  rinner =    1.400   1.400   1.400
                                                       1.400   1.400

     PseudoPot. # 2 for Te read from file:
     /work/02599/asmiller/pseudo/gbrv/pbe_GBRV/te_pbe_v1.uspp.F.UPF
     MD5 check sum: 749656373d74338a59c146dbd702c29e
     Pseudo is Ultrasoft + core correction, Zval =  6.0
     Generated by new atomic code, or converted to UPF format
     Using radial grid of  891 points,  5 beta functions with: 
                l(1) =   0
                l(2) =   0
                l(3) =   1
                l(4) =   1
                l(5) =   2
     Q(r) pseudized with  6 coefficients,  rinner =    1.800   1.800   1.800
                                                       1.800   1.800

     atomic species   valence    mass     pseudopotential
        Ge            14.00    72.63000     Ge( 1.00)
        Te             6.00   127.60000     Te( 1.00)

      6 Sym. Ops. (no inversion) found



   Cartesian axes

     site n.     atom                  positions (alat units)
         1           Ge  tau(   1) = (   0.0000000   0.0000000   0.0105077  )
         2           Te  tau(   2) = (   0.0000000   0.0000000   0.8401424  )

     number of k points=  1872

     Number of k-points >= 100: set verbosity='high' to print them.

     Dense  grid:    87129 G-vectors     FFT dimensions: (  64,  64,  64)

     Smooth grid:    16739 G-vectors     FFT dimensions: (  36,  36,  36)

     Largest allocated arrays     est. size (Mb)     dimensions
        Kohn-Sham Wavefunctions         0.03 Mb     (    188,   10)
        NL pseudopotentials             0.09 Mb     (    188,   31)
        Each V/rho on FFT grid          0.38 Mb     (  24576)
        Each G-vector array             0.06 Mb     (   7260)
        G-vector shells                 0.05 Mb     (   6182)
     Largest temporary arrays     est. size (Mb)     dimensions
        Auxiliary wavefunctions         0.11 Mb     (    188,   40)
        Each subspace H/S matrix        0.02 Mb     (  40,  40)
        Each <psi_i|beta_j> matrix      0.00 Mb     (     31,   10)

     Check: negative/imaginary core charge=   -0.000002    0.000000

     The potential is recalculated from file :
     ./_ph0/GeTe_d.save/charge-density.dat

     Starting wfc are   13 atomic wfcs

     total cpu time spent up to now is      133.6 secs

[...]
     kinetic-energy cutoff     =      50.0000  Ry
     charge density cutoff     =     600.0000  Ry
     Exchange-correlation      = PBESOL ( 1 410 8 0)
     EXX-fraction              =        0.00

     celldm(1)=  11.356500  celldm(2)=   0.000000  celldm(3)=   0.000000
     celldm(4)=   0.000000  celldm(5)=   0.000000  celldm(6)=   0.000000

     crystal axes: (cart. coord. in units of alat)
               a(1) = (   0.000000  -0.399246   0.578674 )  
               a(2) = (   0.345757   0.199623   0.578674 )  
               a(3) = (  -0.345757   0.199623   0.578674 )  

     reciprocal axes: (cart. coord. in units 2 pi/alat)
               b(1) = (  0.000000 -1.669813  0.576030 )  
               b(2) = (  1.446101  0.834907  0.576030 )  
               b(3) = ( -1.446101  0.834907  0.576030 )  


     PseudoPot. # 1 for Ge read from file:
     /work/02599/asmiller/pseudo/gbrv/pbe_GBRV/ge_pbe_v1.uspp.F.UPF
     MD5 check sum: 48aaa9fc4bb44e29d138cf8697c43b9a
     Pseudo is Ultrasoft + core correction, Zval = 14.0
     Generated by new atomic code, or converted to UPF format
     Using radial grid of  873 points,  6 beta functions with: 
                l(1) =   0
                l(2) =   0
                l(3) =   1
                l(4) =   1
                l(5) =   2
                l(6) =   2
     Q(r) pseudized with  8 coefficients,  rinner =    1.400   1.400   1.400
                                                       1.400   1.400

     PseudoPot. # 2 for Te read from file:
     /work/02599/asmiller/pseudo/gbrv/pbe_GBRV/te_pbe_v1.uspp.F.UPF
     MD5 check sum: 749656373d74338a59c146dbd702c29e
     Pseudo is Ultrasoft + core correction, Zval =  6.0
     Generated by new atomic code, or converted to UPF format
     Using radial grid of  891 points,  5 beta functions with: 
                l(1) =   0
                l(2) =   0
                l(3) =   1
                l(4) =   1
                l(5) =   2
     Q(r) pseudized with  6 coefficients,  rinner =    1.800   1.800   1.800
                                                       1.800   1.800

     atomic species   valence    mass     pseudopotential
        Ge            14.00    72.63000     Ge( 1.00)
        Te             6.00   127.60000     Te( 1.00)

      6 Sym. Ops. (no inversion) found



   Cartesian axes

     site n.     atom                  positions (alat units)
         1           Ge  tau(   1) = (   0.0000000   0.0000000   0.0105077  )
         2           Te  tau(   2) = (   0.0000000   0.0000000   0.8401424  )

     number of k points=   378

     Number of k-points >= 100: set verbosity='high' to print them.

     Dense  grid:    87129 G-vectors     FFT dimensions: (  64,  64,  64)

     Smooth grid:    16739 G-vectors     FFT dimensions: (  36,  36,  36)

     Largest allocated arrays     est. size (Mb)     dimensions
        Kohn-Sham Wavefunctions         0.03 Mb     (    191,   10)
        NL pseudopotentials             0.09 Mb     (    191,   31)
        Each V/rho on FFT grid          0.38 Mb     (  24576)
        Each G-vector array             0.06 Mb     (   7260)
        G-vector shells                 0.05 Mb     (   6221)
     Largest temporary arrays     est. size (Mb)     dimensions
        Auxiliary wavefunctions         0.12 Mb     (    191,   40)
        Each subspace H/S matrix        0.02 Mb     (  40,  40)
        Each <psi_i|beta_j> matrix      0.00 Mb     (     31,   10)

     Check: negative/imaginary core charge=   -0.000002    0.000000

     The potential is recalculated from file :
     ./_ph0/GeTe_d.save/charge-density.dat

     Starting wfc are   13 atomic wfcs

     total cpu time spent up to now is     1975.2 secs

     per-process dynamical memory:    81.7 Mb

     Band Structure Calculation
     Davidson diagonalization with overlap

     ethr =  5.00E-11,  avg # of iterations = 16.1

     total cpu time spent up to now is     1984.6 secs

     End of band structure calculation

     Number of k-points >= 100: set verbosity='high' to print the bands.

     Writing output data file GeTe_d.save

                                                                                

     bravais-lattice index     =            0
     lattice parameter (alat)  =      11.3565  a.u.
     unit-cell volume          =     350.9948 (a.u.)^3
     number of atoms/cell      =            2
     number of atomic types    =            2
     kinetic-energy cut-off    =      50.0000  Ry
     charge density cut-off    =     600.0000  Ry
     convergence threshold     =      1.0E-16
     beta                      =       0.7000
     number of iterations used =            4
     Exchange-correlation      = PBESOL ( 1 410 8 0)
     EXX-fraction              =        0.00


     celldm(1)=   11.35650  celldm(2)=    0.00000  celldm(3)=    0.00000
     celldm(4)=    0.00000  celldm(5)=    0.00000  celldm(6)=    0.00000

     crystal axes: (cart. coord. in units of alat)
               a(1) = (  0.0000 -0.3992  0.5787 )  
               a(2) = (  0.3458  0.1996  0.5787 )  
               a(3) = ( -0.3458  0.1996  0.5787 )  

     reciprocal axes: (cart. coord. in units 2 pi/alat)
               b(1) = (  0.0000 -1.6698  0.5760 )  
               b(2) = (  1.4461  0.8349  0.5760 )  
               b(3) = ( -1.4461  0.8349  0.5760 )  


     Atoms inside the unit cell: 

   Cartesian axes

     site n.  atom      mass           positions (alat units)
        1        Ge  72.6300   tau( 1) = (    0.00000    0.00000    0.01051  )
        2        Te 127.6000   tau( 2) = (    0.00000    0.00000    0.84014  )

     Computing dynamical matrix for 
                    q = (   0.0000000   0.0000000  -0.8640450 )
 
      7 Sym.Ops. (with q -> -q+G )


     G cutoff = 1960.1103  (   7260 G-vectors)     FFT grid: ( 64, 64, 64)
     G cutoff =  653.3701  (   1392 G-vectors)  smooth grid: ( 36, 36, 36)
     number of k points=   378

     PseudoPot. # 1 for Ge read from file:
     /work/02599/asmiller/pseudo/gbrv/pbe_GBRV/ge_pbe_v1.uspp.F.UPF
     MD5 check sum: 48aaa9fc4bb44e29d138cf8697c43b9a
     Pseudo is Ultrasoft + core correction, Zval = 14.0
     Generated by new atomic code, or converted to UPF format
     Using radial grid of  873 points,  6 beta functions with: 
                l(1) =   0
                l(2) =   0
                l(3) =   1
                l(4) =   1
                l(5) =   2
                l(6) =   2
     Q(r) pseudized with  8 coefficients,  rinner =    1.400   1.400   1.400
                                                       1.400   1.400

     PseudoPot. # 2 for Te read from file:
     /work/02599/asmiller/pseudo/gbrv/pbe_GBRV/te_pbe_v1.uspp.F.UPF
     MD5 check sum: 749656373d74338a59c146dbd702c29e
     Pseudo is Ultrasoft + core correction, Zval =  6.0
     Generated by new atomic code, or converted to UPF format
     Using radial grid of  891 points,  5 beta functions with: 
                l(1) =   0
                l(2) =   0
                l(3) =   1
                l(4) =   1
                l(5) =   2
     Q(r) pseudized with  6 coefficients,  rinner =    1.800   1.800   1.800
                                                       1.800   1.800


     Atomic displacements:
     There are   4 irreducible representations

     Representation     1      1 modes -A_1  L_1 To be done

     Representation     2      1 modes -A_1  L_1 To be done

     Representation     3      2 modes -E    L_3 To be done

     Representation     4      2 modes -E    L_3 To be done



     Alpha used in Ewald sum =   2.8000
     PHONON       :    17h24m CPU       17h44m WALL



     Representation #  1 mode #   1

     Self-consistent Calculation

      iter #   1 total cpu time : 63849.4 secs   av.it.:   8.9
      thresh= 0.100E-01 alpha_mix =  0.700 |ddv_scf|^2 =  0.120E-03

      iter #   2 total cpu time : 63854.1 secs   av.it.:  12.9
      thresh= 0.109E-02 alpha_mix =  0.700 |ddv_scf|^2 =  0.620E-03

      iter #   3 total cpu time : 63858.1 secs   av.it.:  11.3
      thresh= 0.249E-02 alpha_mix =  0.700 |ddv_scf|^2 =  0.605E-05

      iter #   4 total cpu time : 63862.3 secs   av.it.:  11.4
      thresh= 0.246E-03 alpha_mix =  0.700 |ddv_scf|^2 =  0.671E-06

      iter #   5 total cpu time : 63866.4 secs   av.it.:  11.6
      thresh= 0.819E-04 alpha_mix =  0.700 |ddv_scf|^2 =  0.381E-07

      iter #   6 total cpu time : 63870.8 secs   av.it.:  12.3
      thresh= 0.195E-04 alpha_mix =  0.700 |ddv_scf|^2 =  0.980E-10

      iter #   7 total cpu time : 63875.5 secs   av.it.:  13.7
      thresh= 0.990E-06 alpha_mix =  0.700 |ddv_scf|^2 =  0.234E-10

      iter #   8 total cpu time : 63880.1 secs   av.it.:  13.0
      thresh= 0.484E-06 alpha_mix =  0.700 |ddv_scf|^2 =  0.987E-12

      iter #   9 total cpu time : 63884.8 secs   av.it.:  13.2
      thresh= 0.993E-07 alpha_mix =  0.700 |ddv_scf|^2 =  0.222E-13

      iter #  10 total cpu time : 63889.2 secs   av.it.:  12.6
      thresh= 0.149E-07 alpha_mix =  0.700 |ddv_scf|^2 =  0.186E-14

      iter #  11 total cpu time : 63893.6 secs   av.it.:  12.4
      thresh= 0.432E-08 alpha_mix =  0.700 |ddv_scf|^2 =  0.879E-15

      iter #  12 total cpu time : 63897.8 secs   av.it.:  11.7
      thresh= 0.296E-08 alpha_mix =  0.700 |ddv_scf|^2 =  0.594E-16

     End of self-consistent calculation

     Convergence has been achieved 


     Representation #  2 mode #   2

     Self-consistent Calculation

      iter #   1 total cpu time : 63900.5 secs   av.it.:   5.4
      thresh= 0.100E-01 alpha_mix =  0.700 |ddv_scf|^2 =  0.138E-04

      iter #   2 total cpu time : 63904.9 secs   av.it.:  12.1
      thresh= 0.372E-03 alpha_mix =  0.700 |ddv_scf|^2 =  0.891E-04

      iter #   3 total cpu time : 63908.8 secs   av.it.:  10.9
      thresh= 0.944E-03 alpha_mix =  0.700 |ddv_scf|^2 =  0.242E-06

      iter #   4 total cpu time : 63913.0 secs   av.it.:  11.4
      thresh= 0.492E-04 alpha_mix =  0.700 |ddv_scf|^2 =  0.789E-08

      iter #   5 total cpu time : 63917.5 secs   av.it.:  12.7
      thresh= 0.888E-05 alpha_mix =  0.700 |ddv_scf|^2 =  0.175E-09

      iter #   6 total cpu time : 63922.0 secs   av.it.:  12.9
      thresh= 0.132E-05 alpha_mix =  0.700 |ddv_scf|^2 =  0.388E-11

      iter #   7 total cpu time : 63926.5 secs   av.it.:  12.8
      thresh= 0.197E-06 alpha_mix =  0.700 |ddv_scf|^2 =  0.163E-12

      iter #   8 total cpu time : 63931.3 secs   av.it.:  13.1
      thresh= 0.404E-07 alpha_mix =  0.700 |ddv_scf|^2 =  0.595E-14

      iter #   9 total cpu time : 63936.1 secs   av.it.:  13.7
      thresh= 0.772E-08 alpha_mix =  0.700 |ddv_scf|^2 =  0.179E-15

      iter #  10 total cpu time : 63940.9 secs   av.it.:  13.8
      thresh= 0.134E-08 alpha_mix =  0.700 |ddv_scf|^2 =  0.564E-16

     End of self-consistent calculation

     Convergence has been achieved 


     Representation #  3 modes #   3  4

     Self-consistent Calculation

      iter #   1 total cpu time : 63945.6 secs   av.it.:   5.0
      thresh= 0.100E-01 alpha_mix =  0.700 |ddv_scf|^2 =  0.158E-07

      iter #   2 total cpu time : 63955.2 secs   av.it.:  13.9
      thresh= 0.126E-04 alpha_mix =  0.700 |ddv_scf|^2 =  0.967E-09

      iter #   3 total cpu time : 63964.8 secs   av.it.:  13.9
      thresh= 0.311E-05 alpha_mix =  0.700 |ddv_scf|^2 =  0.514E-10

      iter #   4 total cpu time : 63974.1 secs   av.it.:  13.4
      thresh= 0.717E-06 alpha_mix =  0.700 |ddv_scf|^2 =  0.312E-12

      iter #   5 total cpu time : 63984.4 secs   av.it.:  14.8
      thresh= 0.559E-07 alpha_mix =  0.700 |ddv_scf|^2 =  0.320E-14

      iter #   6 total cpu time : 63994.4 secs   av.it.:  14.8
      thresh= 0.565E-08 alpha_mix =  0.700 |ddv_scf|^2 =  0.126E-15

      iter #   7 total cpu time : 64004.6 secs   av.it.:  15.1
      thresh= 0.112E-08 alpha_mix =  0.700 |ddv_scf|^2 =  0.107E-16

     End of self-consistent calculation

     Convergence has been achieved 


     Representation #  4 modes #   5  6

     Self-consistent Calculation

      iter #   1 total cpu time : 64011.4 secs   av.it.:   8.4
      thresh= 0.100E-01 alpha_mix =  0.700 |ddv_scf|^2 =  0.196E-05

      iter #   2 total cpu time : 64021.1 secs   av.it.:  14.0
      thresh= 0.140E-03 alpha_mix =  0.700 |ddv_scf|^2 =  0.230E-06

      iter #   3 total cpu time : 64030.7 secs   av.it.:  14.0
      thresh= 0.480E-04 alpha_mix =  0.700 |ddv_scf|^2 =  0.165E-08

      iter #   4 total cpu time : 64040.6 secs   av.it.:  14.6
      thresh= 0.406E-05 alpha_mix =  0.700 |ddv_scf|^2 =  0.136E-10

      iter #   5 total cpu time : 64050.4 secs   av.it.:  14.4
      thresh= 0.368E-06 alpha_mix =  0.700 |ddv_scf|^2 =  0.184E-12

      iter #   6 total cpu time : 64060.1 secs   av.it.:  14.0
      thresh= 0.429E-07 alpha_mix =  0.700 |ddv_scf|^2 =  0.122E-13

      iter #   7 total cpu time : 64069.7 secs   av.it.:  14.0
      thresh= 0.111E-07 alpha_mix =  0.700 |ddv_scf|^2 =  0.807E-15

      iter #   8 total cpu time : 64079.4 secs   av.it.:  14.1
      thresh= 0.284E-08 alpha_mix =  0.700 |ddv_scf|^2 =  0.220E-17

     End of self-consistent calculation

     Convergence has been achieved 
 
     Number of q in the star =    1
     List of q in the star:
          1   0.000000000   0.000000000  -0.864045001

     Diagonalizing the dynamical matrix

     q = (    0.000000000   0.000000000  -0.864045001 ) 

 **************************************************************************
     omega( 1) =       2.409193 [THz] =      80.362017 [cm-1]
     omega( 2) =       2.409193 [THz] =      80.362017 [cm-1]
     omega( 3) =       3.060415 [THz] =     102.084448 [cm-1]
     omega( 4) =       4.288584 [THz] =     143.051773 [cm-1]
     omega( 5) =       4.288584 [THz] =     143.051773 [cm-1]
     omega( 6) =       5.317163 [THz] =     177.361477 [cm-1]
 **************************************************************************

     Mode symmetry, C_3v (3m)   point group:

     omega(  1 -  2) =         80.4  [cm-1]   --> E    L_3           
     omega(  3 -  3) =        102.1  [cm-1]   --> A_1  L_1           
     omega(  4 -  5) =        143.1  [cm-1]   --> E    L_3           
     omega(  6 -  6) =        177.4  [cm-1]   --> A_1  L_1           

 **************************************************************************
 
     init_run     :     27.79s CPU     30.99s WALL (      31 calls)
     electrons    :   1656.34s CPU   1852.67s WALL (      31 calls)

     Called by init_run:
     wfcinit      :      0.00s CPU      0.01s WALL (      31 calls)
     potinit      :      2.46s CPU      2.93s WALL (      31 calls)

     Called by electrons:
     c_bands      :   1656.26s CPU   1852.56s WALL (      31 calls)
     v_of_rho     :      0.79s CPU      0.84s WALL (      32 calls)
     newd         :      2.04s CPU      2.06s WALL (      32 calls)

     Called by c_bands:
     init_us_2    :     95.47s CPU     97.00s WALL ( 1066898 calls)
     cegterg      :   1395.78s CPU   1407.23s WALL (   25461 calls)

     Called by *egterg:
     h_psi        :   1243.13s CPU   1254.08s WALL (  433385 calls)
     s_psi        :   2768.77s CPU   2819.17s WALL (34329250 calls)
     g_psi        :     10.01s CPU     10.07s WALL (  384114 calls)
     cdiaghg      :    139.76s CPU    141.97s WALL (  407924 calls)

     Called by h_psi:
     add_vuspsi   :   1444.85s CPU   1441.95s WALL (16916122 calls)

     General routines
     calbec       :   4758.01s CPU   4647.71s WALL (35804125 calls)
     fft          :     67.27s CPU     70.97s WALL (   42064 calls)
     ffts         :     17.85s CPU     20.27s WALL (   78460 calls)
     fftw         :  39359.76s CPU  39570.29s WALL (******** calls)
     interpolate  :      0.14s CPU      0.13s WALL (      63 calls)
     davcio       :     23.67s CPU    234.06s WALL ( 4764328 calls)
 
     Parallel routines
     fft_scatter  :  20887.96s CPU  20830.27s WALL (******** calls)
 
     PHONON       :    17h28m CPU       17h47m WALL

     INITIALIZATION: 
     phq_setup    :      1.87s CPU      3.37s WALL (      32 calls)
     phq_init     :    264.71s CPU    270.11s WALL (      32 calls)
 
     phq_init     :    264.71s CPU    270.11s WALL (      32 calls)
     set_drhoc    :     23.60s CPU     23.61s WALL (      96 calls)
     init_vloc    :      2.89s CPU      2.88s WALL (      32 calls)
     init_us_1    :      7.26s CPU      7.28s WALL (      32 calls)
     newd         :      2.04s CPU      2.06s WALL (      32 calls)
     dvanqq       :     17.71s CPU     17.72s WALL (      32 calls)
     drho         :    183.37s CPU    186.37s WALL (      32 calls)
 
     DYNAMICAL MATRIX:
     dynmat0      :     39.49s CPU     40.85s WALL (      32 calls)
     phqscf       :  60737.48s CPU  61655.71s WALL (      32 calls)
     dynmatrix    :      0.14s CPU      0.32s WALL (      32 calls)
 
     phqscf       :  60737.48s CPU  61655.71s WALL (      32 calls)
     solve_linter :  60672.64s CPU  61580.62s WALL (     184 calls)
     drhodv       :     61.46s CPU     63.74s WALL (     184 calls)
 
     dynmat0      :     39.49s CPU     40.85s WALL (      32 calls)
     dynmat_us    :     23.45s CPU     23.82s WALL (      32 calls)
     d2ionq       :      0.07s CPU      0.07s WALL (      32 calls)
     dynmatcc     :     15.77s CPU     15.82s WALL (      32 calls)
 
     dynmat_us    :     23.45s CPU     23.82s WALL (      32 calls)
     addusdynmat  :      0.01s CPU      0.00s WALL (      32 calls)
 
     phqscf       :  60737.48s CPU  61655.71s WALL (      32 calls)
     solve_linter :  60672.64s CPU  61580.62s WALL (     184 calls)
 
     solve_linter :  60672.64s CPU  61580.62s WALL (     184 calls)
     dvqpsi_us    :    266.75s CPU    271.10s WALL (   72186 calls)
     ortho        :    368.67s CPU    368.75s WALL (  930202 calls)
     cgsolve      :  53990.25s CPU  54568.56s WALL (  930202 calls)
     incdrhoscf   :   2971.39s CPU   3000.89s WALL (  930202 calls)
     addusddens   :    143.40s CPU    144.42s WALL (    2461 calls)
     vpsifft      :   2339.74s CPU   2364.64s WALL (  856693 calls)
     dv_of_drho   :     67.68s CPU     70.75s WALL (    2363 calls)
     mix_pot      :     16.75s CPU     52.32s WALL (    2285 calls)
     psymdvscf    :     43.59s CPU     47.95s WALL (    1276 calls)
     newdq        :    131.73s CPU    132.20s WALL (    2285 calls)
     adddvscf     :    133.49s CPU    133.76s WALL (  858016 calls)
     drhodvus     :      0.27s CPU      0.49s WALL (     184 calls)
 
     dvqpsi_us    :    266.75s CPU    271.10s WALL (   72186 calls)
     dvqpsi_us_on :     53.53s CPU     53.86s WALL (   72186 calls)
 
     cgsolve      :  53990.25s CPU  54568.56s WALL (  930202 calls)
     ch_psi       :  52485.78s CPU  53104.59s WALL (16482737 calls)
 
     ch_psi       :  52485.78s CPU  53104.59s WALL (16482737 calls)
     h_psiq       :  47323.45s CPU  47864.80s WALL (16482737 calls)
     last         :   5064.40s CPU   5111.36s WALL (16482737 calls)
 
     h_psiq       :  47323.45s CPU  47864.80s WALL (16482737 calls)
     firstfft     :  25770.02s CPU  26193.41s WALL (******** calls)
     secondfft    :  15691.22s CPU  15742.18s WALL (******** calls)
     add_vuspsi   :   1444.85s CPU   1441.95s WALL (16916122 calls)
 
     incdrhoscf   :   2971.39s CPU   3000.89s WALL (  930202 calls)
     addusdbec    :    191.37s CPU    187.46s WALL ( 1002010 calls)
 
     drhodvus     :      0.27s CPU      0.49s WALL (     184 calls)
 
      General routines
     calbec       :   4758.01s CPU   4647.71s WALL (35804125 calls)
     fft          :     67.27s CPU     70.97s WALL (   42064 calls)
     ffts         :     17.85s CPU     20.27s WALL (   78460 calls)
     fftw         :  39359.76s CPU  39570.29s WALL (******** calls)
     cinterpolate :     10.55s CPU     10.82s WALL (    4915 calls)
     davcio       :     23.67s CPU    234.06s WALL ( 4764328 calls)
     write_rec    :      8.23s CPU     40.72s WALL (    2469 calls)
 
TACC: Shutting down parallel environment.
TACC: Shutdown complete. Exiting.
