TACC: Starting up job 2117629
TACC: Setting up parallel environment for MVAPICH ssh-based mpirun.
TACC: Setup complete. Running job script.
TACC: starting parallel tasks...

     Program PWSCF v.5.0.1 starts on 17Aug2014 at 23:26:22 

     This program is part of the open-source Quantum ESPRESSO suite
     for quantum simulation of materials; please cite
         "P. Giannozzi et al., J. Phys.:Condens. Matter 21 395502 (2009);
          URL http://www.quantum-espresso.org", 
     in publications or presentations arising from this work. More details at
     http://www.quantum-espresso.org/quote.php

     Parallel version (MPI), running on    24 processors
     K-points division:     npool     =    2
     R & G space division:  proc/pool =   12

     Current dimensions of program PWSCF are:
     Max number of different atomic species (ntypx) = 10
     Max number of k-points (npk) =  40000
     Max angular momentum in pseudopotentials (lmaxx) =  3
     Waiting for input...
     Reading input from standard input
Warning: card &IONS ignored
Warning: card ION_DYNAMICS='BFGS', ignored
Warning: card / ignored
Warning: card &CELL ignored
Warning: card CELL_DYNAMICS='BFGS', ignored
Warning: card PRESS=0.D0 ignored
Warning: card / ignored

     IMPORTANT: XC functional enforced from input :
     Exchange-correlation      = PBESOL ( 1 410 8 0)
     EXX-fraction              =        0.00
     Any further DFT definition will be discarded
     Please, verify this is what you really want


     Subspace diagonalization in iterative solution of the eigenvalue problem:
     a serial algorithm will be used

 
     Parallelization info
     --------------------
     sticks:   dense  smooth     PW     G-vecs:    dense   smooth      PW
     Min         213      70     21                 7158     1369     223
     Max         214      71     22                 7162     1382     226
     Sum        2563     847    253                85923    16529    2685
 


     bravais-lattice index     =            0
     lattice parameter (alat)  =      11.2185  a.u.
     unit-cell volume          =     346.4155 (a.u.)^3
     number of atoms/cell      =            2
     number of atomic types    =            2
     number of electrons       =        20.00
     number of Kohn-Sham states=           10
     kinetic-energy cutoff     =      50.0000  Ry
     charge density cutoff     =     600.0000  Ry
     convergence threshold     =      1.0E-10
     mixing beta               =       0.7000
     number of iterations used =            8  plain     mixing
     Exchange-correlation      = PBESOL ( 1 410 8 0)
     EXX-fraction              =        0.00

     celldm(1)=  11.218536  celldm(2)=   0.000000  celldm(3)=   0.000000
     celldm(4)=   0.000000  celldm(5)=   0.000000  celldm(6)=   0.000000

     crystal axes: (cart. coord. in units of alat)
               a(1) = (   0.000000   0.496882   0.496882 )  
               a(2) = (   0.496882   0.000000   0.496882 )  
               a(3) = (   0.496882   0.496882   0.000000 )  

     reciprocal axes: (cart. coord. in units 2 pi/alat)
               b(1) = ( -1.006276  1.006276  1.006276 )  
               b(2) = (  1.006276 -1.006276  1.006276 )  
               b(3) = (  1.006276  1.006276 -1.006276 )  


     PseudoPot. # 1 for Pb read from file:
     /work/02599/asmiller/pseudo/gbrv/pbe_GBRV/pb_pbe_v1.uspp.F.UPF
     MD5 check sum: 3d1c1779aa92214d1e8f3a7db79003e2
     Pseudo is Ultrasoft + core correction, Zval = 14.0
     Generated by new atomic code, or converted to UPF format
     Using radial grid of  899 points,  6 beta functions with: 
                l(1) =   0
                l(2) =   0
                l(3) =   1
                l(4) =   1
                l(5) =   2
                l(6) =   2
     Q(r) pseudized with  6 coefficients,  rinner =    1.000   1.000   1.000
                                                       1.000   1.000

     PseudoPot. # 2 for S  read from file:
     /work/02599/asmiller/pseudo/gbrv/pbe_GBRV/s_pbe_v1.2.uspp.F.UPF
     MD5 check sum: 2e30864c2a0cf3bb4a9e1f7a4cfc7cf0
     Pseudo is Ultrasoft + core correction, Zval =  6.0
     Generated by new atomic code, or converted to UPF format
     Using radial grid of  907 points,  6 beta functions with: 
                l(1) =   0
                l(2) =   0
                l(3) =   1
                l(4) =   1
                l(5) =   2
                l(6) =   2
     Q(r) pseudized with  8 coefficients,  rinner =    1.300   1.300   1.300
                                                       1.300   1.300

     atomic species   valence    mass     pseudopotential
        Pb            14.00   207.20000     Pb( 1.00)
        S              6.00    32.06000     S ( 1.00)

     48 Sym. Ops., with inversion, found



   Cartesian axes

     site n.     atom                  positions (alat units)
         1           Pb  tau(   1) = (   0.0000000   0.0000000   0.0000000  )
         2           S   tau(   2) = (   0.4968816   0.4968816   0.4968816  )

     number of k points=    72
                       cart. coord. in units 2pi/alat
        k(    1) = (   0.0000000   0.0000000   0.0000000), wk =   0.0011574
        k(    2) = (   0.0838563   0.0838563  -0.0838563), wk =   0.0092593
        k(    3) = (   0.1677127   0.1677127  -0.1677127), wk =   0.0092593
        k(    4) = (   0.2515690   0.2515690  -0.2515690), wk =   0.0092593
        k(    5) = (   0.3354253   0.3354253  -0.3354253), wk =   0.0092593
        k(    6) = (   0.4192816   0.4192816  -0.4192816), wk =   0.0092593
        k(    7) = (  -0.5031380  -0.5031380   0.5031380), wk =   0.0046296
        k(    8) = (   0.1677127   0.0000000   0.0000000), wk =   0.0069444
        k(    9) = (   0.2515690   0.0838563  -0.0838563), wk =   0.0277778
        k(   10) = (   0.3354253   0.1677127  -0.1677127), wk =   0.0277778
        k(   11) = (   0.4192816   0.2515690  -0.2515690), wk =   0.0277778
        k(   12) = (   0.5031380   0.3354253  -0.3354253), wk =   0.0277778
        k(   13) = (  -0.4192816  -0.5869943   0.5869943), wk =   0.0277778
        k(   14) = (  -0.3354253  -0.5031380   0.5031380), wk =   0.0277778
        k(   15) = (  -0.2515690  -0.4192816   0.4192816), wk =   0.0277778
        k(   16) = (  -0.1677127  -0.3354253   0.3354253), wk =   0.0277778
        k(   17) = (  -0.0838563  -0.2515690   0.2515690), wk =   0.0277778
        k(   18) = (   0.0000000  -0.1677127   0.1677127), wk =   0.0138889
        k(   19) = (   0.3354253   0.0000000   0.0000000), wk =   0.0069444
        k(   20) = (   0.4192816   0.0838563  -0.0838563), wk =   0.0277778
        k(   21) = (   0.5031380   0.1677127  -0.1677127), wk =   0.0277778
        k(   22) = (   0.5869943   0.2515690  -0.2515690), wk =   0.0277778
        k(   23) = (  -0.3354253  -0.6708506   0.6708506), wk =   0.0277778
        k(   24) = (  -0.2515690  -0.5869943   0.5869943), wk =   0.0277778
        k(   25) = (  -0.1677127  -0.5031380   0.5031380), wk =   0.0277778
        k(   26) = (  -0.0838563  -0.4192816   0.4192816), wk =   0.0277778
        k(   27) = (   0.0000000  -0.3354253   0.3354253), wk =   0.0138889
        k(   28) = (   0.5031380   0.0000000   0.0000000), wk =   0.0069444
        k(   29) = (   0.5869943   0.0838563  -0.0838563), wk =   0.0277778
        k(   30) = (   0.6708506   0.1677127  -0.1677127), wk =   0.0277778
        k(   31) = (  -0.2515690  -0.7547070   0.7547070), wk =   0.0277778
        k(   32) = (  -0.1677127  -0.6708506   0.6708506), wk =   0.0277778
        k(   33) = (  -0.0838563  -0.5869943   0.5869943), wk =   0.0277778
        k(   34) = (   0.0000000  -0.5031380   0.5031380), wk =   0.0138889
        k(   35) = (   0.6708506   0.0000000   0.0000000), wk =   0.0069444
        k(   36) = (   0.7547070   0.0838563  -0.0838563), wk =   0.0277778
        k(   37) = (  -0.1677127  -0.8385633   0.8385633), wk =   0.0277778
        k(   38) = (  -0.0838563  -0.7547070   0.7547070), wk =   0.0277778
        k(   39) = (   0.0000000  -0.6708506   0.6708506), wk =   0.0138889
        k(   40) = (   0.8385633   0.0000000   0.0000000), wk =   0.0069444
        k(   41) = (  -0.0838563  -0.9224196   0.9224196), wk =   0.0277778
        k(   42) = (   0.0000000  -0.8385633   0.8385633), wk =   0.0138889
        k(   43) = (  -1.0062759   0.0000000   0.0000000), wk =   0.0034722
        k(   44) = (   0.3354253   0.1677127   0.0000000), wk =   0.0277778
        k(   45) = (   0.4192816   0.2515690  -0.0838563), wk =   0.0555556
        k(   46) = (   0.5031380   0.3354253  -0.1677127), wk =   0.0555556
        k(   47) = (  -0.4192816  -0.5869943   0.7547070), wk =   0.0555556
        k(   48) = (  -0.3354253  -0.5031380   0.6708506), wk =   0.0277778
        k(   49) = (   0.5031380   0.1677127   0.0000000), wk =   0.0277778
        k(   50) = (   0.5869943   0.2515690  -0.0838563), wk =   0.0555556
        k(   51) = (  -0.3354253  -0.6708506   0.8385633), wk =   0.0555556
        k(   52) = (  -0.2515690  -0.5869943   0.7547070), wk =   0.0555556
        k(   53) = (  -0.1677127  -0.5031380   0.6708506), wk =   0.0555556
        k(   54) = (  -0.0838563  -0.4192816   0.5869943), wk =   0.0555556
        k(   55) = (   0.0000000  -0.3354253   0.5031380), wk =   0.0277778
        k(   56) = (   0.6708506   0.1677127   0.0000000), wk =   0.0277778
        k(   57) = (  -0.2515690  -0.7547070   0.9224196), wk =   0.0555556
        k(   58) = (  -0.1677127  -0.6708506   0.8385633), wk =   0.0555556
        k(   59) = (  -0.0838563  -0.5869943   0.7547070), wk =   0.0555556
        k(   60) = (   0.0000000  -0.5031380   0.6708506), wk =   0.0277778
        k(   61) = (  -0.1677127  -0.8385633   1.0062759), wk =   0.0277778
        k(   62) = (  -0.0838563  -0.7547070   0.9224196), wk =   0.0555556
        k(   63) = (   0.0000000  -0.6708506   0.8385633), wk =   0.0277778
        k(   64) = (  -1.0062759   0.1677127   0.0000000), wk =   0.0138889
        k(   65) = (  -0.3354253  -0.6708506   1.0062759), wk =   0.0277778
        k(   66) = (  -0.2515690  -0.5869943   0.9224196), wk =   0.0555556
        k(   67) = (  -0.1677127  -0.5031380   0.8385633), wk =   0.0277778
        k(   68) = (  -0.1677127  -0.6708506   1.0062759), wk =   0.0277778
        k(   69) = (  -0.0838563  -0.5869943   0.9224196), wk =   0.0555556
        k(   70) = (   0.0000000  -0.5031380   0.8385633), wk =   0.0277778
        k(   71) = (  -1.0062759   0.3354253   0.0000000), wk =   0.0138889
        k(   72) = (  -1.0062759   0.5031380   0.0000000), wk =   0.0069444

     Dense  grid:    85923 G-vectors     FFT dimensions: (  64,  64,  64)

     Smooth grid:    16529 G-vectors     FFT dimensions: (  36,  36,  36)

     Largest allocated arrays     est. size (Mb)     dimensions
        Kohn-Sham Wavefunctions         0.03 Mb     (    182,   10)
        NL pseudopotentials             0.10 Mb     (    182,   36)
        Each V/rho on FFT grid          0.38 Mb     (  24576)
        Each G-vector array             0.05 Mb     (   7162)
        G-vector shells                 0.00 Mb     (    624)
     Largest temporary arrays     est. size (Mb)     dimensions
        Each subspace H/S matrix        0.00 Mb     (  10,  10)
        Each <psi_i|beta_j> matrix      0.01 Mb     (     36,   10)
        Arrays for rho mixing           3.00 Mb     (  24576,   8)

     Initial potential from superposition of free atoms
     Check: negative starting charge=   -0.016016

     starting charge   19.99761, renormalised to   20.00000

     negative rho (up, down):  0.160E-01 0.000E+00
     Starting wfc are   13 randomized atomic wfcs

     total cpu time spent up to now is        1.5 secs

     per-process dynamical memory:    55.2 Mb

     Self-consistent Calculation

     iteration #  1     ecut=    50.00 Ry     beta=0.70
     CG style diagonalization
     ethr =  1.00E-02,  avg # of iterations =  2.0

     Threshold (ethr) on eigenvalues was too large:
     Diagonalizing with lowered threshold

     CG style diagonalization
     ethr =  5.90E-04,  avg # of iterations =  2.1

     negative rho (up, down):  0.148E-01 0.000E+00

     total cpu time spent up to now is        2.9 secs

     total energy              =    -190.28064523 Ry
     Harris-Foulkes estimate   =    -190.36077635 Ry
     estimated scf accuracy    <       0.11178406 Ry

     iteration #  2     ecut=    50.00 Ry     beta=0.70
     CG style diagonalization
     ethr =  5.59E-04,  avg # of iterations =  3.8

     negative rho (up, down):  0.154E-01 0.000E+00

     total cpu time spent up to now is        3.9 secs

     total energy              =    -190.30429934 Ry
     Harris-Foulkes estimate   =    -190.36094217 Ry
     estimated scf accuracy    <       0.11636219 Ry

     iteration #  3     ecut=    50.00 Ry     beta=0.70
     CG style diagonalization
     ethr =  5.59E-04,  avg # of iterations =  3.5

     negative rho (up, down):  0.153E-01 0.000E+00

     total cpu time spent up to now is        4.9 secs

     total energy              =    -190.32918726 Ry
     Harris-Foulkes estimate   =    -190.32939570 Ry
     estimated scf accuracy    <       0.00060314 Ry

     iteration #  4     ecut=    50.00 Ry     beta=0.70
     CG style diagonalization
     ethr =  3.02E-06,  avg # of iterations =  4.5

     negative rho (up, down):  0.153E-01 0.000E+00

     total cpu time spent up to now is        6.0 secs

     total energy              =    -190.33160829 Ry
     Harris-Foulkes estimate   =    -190.33163550 Ry
     estimated scf accuracy    <       0.00007286 Ry

     iteration #  5     ecut=    50.00 Ry     beta=0.70
     CG style diagonalization
     ethr =  3.64E-07,  avg # of iterations =  4.6

     negative rho (up, down):  0.153E-01 0.000E+00

     total cpu time spent up to now is        7.2 secs

     total energy              =    -190.33164276 Ry
     Harris-Foulkes estimate   =    -190.33164319 Ry
     estimated scf accuracy    <       0.00000888 Ry

     iteration #  6     ecut=    50.00 Ry     beta=0.70
     CG style diagonalization
     ethr =  4.44E-08,  avg # of iterations =  6.3

     negative rho (up, down):  0.153E-01 0.000E+00

     total cpu time spent up to now is        8.8 secs

     total energy              =    -190.33166165 Ry
     Harris-Foulkes estimate   =    -190.33166100 Ry
     estimated scf accuracy    <       0.00001026 Ry

     iteration #  7     ecut=    50.00 Ry     beta=0.70
     CG style diagonalization
     ethr =  4.44E-08,  avg # of iterations =  3.4

     negative rho (up, down):  0.156E-01 0.000E+00

     total cpu time spent up to now is        9.7 secs

     total energy              =    -190.33165699 Ry
     Harris-Foulkes estimate   =    -190.33166274 Ry
     estimated scf accuracy    <       0.00001102 Ry

     iteration #  8     ecut=    50.00 Ry     beta=0.70
     CG style diagonalization
     ethr =  4.44E-08,  avg # of iterations =  4.0

     negative rho (up, down):  0.156E-01 0.000E+00

     total cpu time spent up to now is       10.8 secs

     total energy              =    -190.33166002 Ry
     Harris-Foulkes estimate   =    -190.33166127 Ry
     estimated scf accuracy    <       0.00000534 Ry

     iteration #  9     ecut=    50.00 Ry     beta=0.70
     CG style diagonalization
     ethr =  2.67E-08,  avg # of iterations =  3.3

     negative rho (up, down):  0.156E-01 0.000E+00

     total cpu time spent up to now is       11.7 secs

     total energy              =    -190.33166008 Ry
     Harris-Foulkes estimate   =    -190.33166055 Ry
     estimated scf accuracy    <       0.00000219 Ry

     iteration # 10     ecut=    50.00 Ry     beta=0.70
     CG style diagonalization
     ethr =  1.10E-08,  avg # of iterations =  3.3

     negative rho (up, down):  0.156E-01 0.000E+00

     total cpu time spent up to now is       12.6 secs

     total energy              =    -190.33165976 Ry
     Harris-Foulkes estimate   =    -190.33166030 Ry
     estimated scf accuracy    <       0.00000151 Ry

     iteration # 11     ecut=    50.00 Ry     beta=0.70
     CG style diagonalization
     ethr =  7.53E-09,  avg # of iterations =  3.5

     negative rho (up, down):  0.156E-01 0.000E+00

     total cpu time spent up to now is       13.6 secs

     total energy              =    -190.33166015 Ry
     Harris-Foulkes estimate   =    -190.33166004 Ry
     estimated scf accuracy    <       0.00000042 Ry

     iteration # 12     ecut=    50.00 Ry     beta=0.70
     CG style diagonalization
     ethr =  2.09E-09,  avg # of iterations =  5.6

     negative rho (up, down):  0.156E-01 0.000E+00

     total cpu time spent up to now is       15.0 secs

     total energy              =    -190.33165987 Ry
     Harris-Foulkes estimate   =    -190.33166060 Ry
     estimated scf accuracy    <       0.00000106 Ry

     iteration # 13     ecut=    50.00 Ry     beta=0.70
     CG style diagonalization
     ethr =  2.09E-09,  avg # of iterations =  4.2

     negative rho (up, down):  0.156E-01 0.000E+00

     total cpu time spent up to now is       16.0 secs

     total energy              =    -190.33166023 Ry
     Harris-Foulkes estimate   =    -190.33166022 Ry
     estimated scf accuracy    <       0.00000005 Ry

     iteration # 14     ecut=    50.00 Ry     beta=0.70
     CG style diagonalization
     ethr =  2.45E-10,  avg # of iterations =  6.3

     negative rho (up, down):  0.156E-01 0.000E+00

     total cpu time spent up to now is       17.6 secs

     total energy              =    -190.33166031 Ry
     Harris-Foulkes estimate   =    -190.33166034 Ry
     estimated scf accuracy    <       0.00000006 Ry

     iteration # 15     ecut=    50.00 Ry     beta=0.70
     CG style diagonalization
     ethr =  2.45E-10,  avg # of iterations =  4.5

     negative rho (up, down):  0.156E-01 0.000E+00

     total cpu time spent up to now is       18.7 secs

     total energy              =    -190.33166033 Ry
     Harris-Foulkes estimate   =    -190.33166034 Ry
     estimated scf accuracy    <       0.00000001 Ry

     iteration # 16     ecut=    50.00 Ry     beta=0.70
     CG style diagonalization
     ethr =  7.46E-11,  avg # of iterations =  4.8

     negative rho (up, down):  0.156E-01 0.000E+00

     total cpu time spent up to now is       20.1 secs

     total energy              =    -190.33166034 Ry
     Harris-Foulkes estimate   =    -190.33166034 Ry
     estimated scf accuracy    <          3.0E-10 Ry

     iteration # 17     ecut=    50.00 Ry     beta=0.70
     CG style diagonalization
     ethr =  1.49E-12,  avg # of iterations = 11.1

     negative rho (up, down):  0.156E-01 0.000E+00

     total cpu time spent up to now is       22.6 secs

     total energy              =    -190.33166034 Ry
     Harris-Foulkes estimate   =    -190.33166034 Ry
     estimated scf accuracy    <          4.5E-10 Ry

     iteration # 18     ecut=    50.00 Ry     beta=0.70
     CG style diagonalization
     ethr =  1.49E-12,  avg # of iterations =  3.6

     negative rho (up, down):  0.156E-01 0.000E+00

     total cpu time spent up to now is       23.6 secs

     total energy              =    -190.33166034 Ry
     Harris-Foulkes estimate   =    -190.33166034 Ry
     estimated scf accuracy    <          2.9E-10 Ry

     iteration # 19     ecut=    50.00 Ry     beta=0.70
     CG style diagonalization
     ethr =  1.45E-12,  avg # of iterations =  4.1

     negative rho (up, down):  0.156E-01 0.000E+00

     total cpu time spent up to now is       24.6 secs

     total energy              =    -190.33166034 Ry
     Harris-Foulkes estimate   =    -190.33166034 Ry
     estimated scf accuracy    <          3.5E-10 Ry

     iteration # 20     ecut=    50.00 Ry     beta=0.70
     CG style diagonalization
     ethr =  1.45E-12,  avg # of iterations =  3.7

     negative rho (up, down):  0.156E-01 0.000E+00

     total cpu time spent up to now is       25.6 secs

     End of self-consistent calculation

          k = 0.0000 0.0000 0.0000 (  2085 PWs)   bands (ev):

    -8.0127  -8.0127  -8.0127  -7.9991  -7.9991  -5.0064   2.7184   6.5146
     6.5146   6.5146

          k = 0.0839 0.0839-0.0839 (  2079 PWs)   bands (ev):

    -8.0124  -8.0109  -8.0109  -7.9999  -7.9999  -4.9446   2.4917   6.5340
     6.5340   6.6875

          k = 0.1677 0.1677-0.1677 (  2052 PWs)   bands (ev):

    -8.0120  -8.0120  -8.0116  -7.9959  -7.9959  -4.7645   1.9286   6.5916
     6.5916   7.0921

          k = 0.2516 0.2516-0.2516 (  2066 PWs)   bands (ev):

    -8.0192  -8.0192  -8.0109  -7.9846  -7.9846  -4.4845   1.2230   6.6824
     6.6824   7.5556

          k = 0.3354 0.3354-0.3354 (  2054 PWs)   bands (ev):

    -8.0272  -8.0272  -8.0104  -7.9725  -7.9725  -4.1470   0.5264   6.7914
     6.7914   7.9950

          k = 0.4193 0.4193-0.4193 (  2066 PWs)   bands (ev):

    -8.0332  -8.0332  -8.0102  -7.9635  -7.9635  -3.8399  -0.0153   6.8871
     6.8871   8.4125

          k =-0.5031-0.5031 0.5031 (  2060 PWs)   bands (ev):

    -8.0354  -8.0354  -8.0102  -7.9601  -7.9601  -3.7072  -0.2292   6.9264
     6.9264   8.7841

          k = 0.1677 0.0000 0.0000 (  2073 PWs)   bands (ev):

    -8.0146  -8.0085  -8.0085  -8.0048  -7.9972  -4.9234   2.4419   6.4194
     6.4194   6.9504

          k = 0.2516 0.0839-0.0839 (  2060 PWs)   bands (ev):

    -8.0156  -8.0128  -8.0062  -8.0020  -7.9931  -4.7811   2.0441   6.3551
     6.4064   7.3468

          k = 0.3354 0.1677-0.1677 (  2059 PWs)   bands (ev):

    -8.0241  -8.0129  -8.0108  -7.9931  -7.9824  -4.5319   1.4346   6.3568
     6.4907   7.7024

          k = 0.4193 0.2516-0.2516 (  2060 PWs)   bands (ev):

    -8.0338  -8.0184  -8.0107  -7.9827  -7.9707  -4.2092   0.7662   6.4307
     6.5806   7.9315

          k = 0.5031 0.3354-0.3354 (  2068 PWs)   bands (ev):

    -8.0405  -8.0258  -8.0090  -7.9728  -7.9622  -3.8833   0.1839   6.5685
     6.5952   8.0523

          k =-0.4193-0.5870 0.5870 (  2067 PWs)   bands (ev):

    -8.0426  -8.0308  -8.0080  -7.9660  -7.9596  -3.6803  -0.1449   6.4932
     6.7404   8.1990

          k =-0.3354-0.5031 0.5031 (  2069 PWs)   bands (ev):

    -8.0396  -8.0318  -8.0079  -7.9644  -7.9637  -3.7255  -0.0783   6.3298
     6.8918   8.3632

          k =-0.2516-0.4193 0.4193 (  2062 PWs)   bands (ev):

    -8.0324  -8.0286  -8.0086  -7.9733  -7.9683  -3.9873   0.3483   6.1921
     6.9625   8.2832

          k =-0.1677-0.3354 0.3354 (  2059 PWs)   bands (ev):

    -8.0229  -8.0220  -8.0099  -7.9861  -7.9765  -4.3236   0.9679   6.1317
     6.9300   7.9552

          k =-0.0839-0.2516 0.2516 (  2059 PWs)   bands (ev):

    -8.0142  -8.0136  -8.0115  -7.9986  -7.9867  -4.6272   1.6241   6.1710
     6.8209   7.5110

          k = 0.0000-0.1677 0.1677 (  2067 PWs)   bands (ev):

    -8.0127  -8.0094  -8.0079  -8.0053  -7.9954  -4.8427   2.1800   6.3171
     6.6771   7.0387

          k = 0.3354 0.0000 0.0000 (  2053 PWs)   bands (ev):

    -8.0257  -8.0198  -7.9967  -7.9967  -7.9920  -4.6761   1.9136   6.1633
     6.1633   7.6419

          k = 0.4193 0.0839-0.0839 (  2056 PWs)   bands (ev):

    -8.0412  -8.0211  -7.9977  -7.9891  -7.9814  -4.4611   1.5413   6.0512
     6.0862   7.5872

          k = 0.5031 0.1677-0.1677 (  2059 PWs)   bands (ev):

    -8.0549  -8.0182  -8.0040  -7.9824  -7.9689  -4.1651   1.0186   6.0390
     6.0815   7.2874

          k = 0.5870 0.2516-0.2516 (  2074 PWs)   bands (ev):

    -8.0635  -8.0123  -8.0114  -7.9778  -7.9604  -3.8451   0.4837   5.9571
     6.1332   7.1311

          k =-0.3354-0.6709 0.6709 (  2070 PWs)   bands (ev):

    -8.0652  -8.0182  -8.0059  -7.9752  -7.9580  -3.6038   0.0977   5.6842
     6.3235   7.2853

          k =-0.2516-0.5870 0.5870 (  2070 PWs)   bands (ev):

    -8.0598  -8.0224  -8.0019  -7.9739  -7.9624  -3.5668   0.0147   5.4478
     6.5765   7.6272

          k =-0.1677-0.5031 0.5031 (  2071 PWs)   bands (ev):

    -8.0487  -8.0232  -8.0021  -7.9735  -7.9721  -3.7597   0.2610   5.3560
     6.8264   8.0336

          k =-0.0839-0.4193 0.4193 (  2067 PWs)   bands (ev):

    -8.0349  -8.0207  -8.0055  -7.9843  -7.9750  -4.0717   0.7044   5.4496
     6.9808   8.2467

          k = 0.0000-0.3354 0.3354 (  2057 PWs)   bands (ev):

    -8.0221  -8.0164  -8.0095  -7.9948  -7.9794  -4.3844   1.1932   5.7340
     6.9737   8.0002

          k = 0.5031 0.0000 0.0000 (  2045 PWs)   bands (ev):

    -8.0651  -8.0269  -7.9850  -7.9803  -7.9803  -4.2828   1.4730   5.8254
     5.8254   6.9717

          k = 0.5870 0.0839-0.0839 (  2059 PWs)   bands (ev):

    -8.0859  -8.0281  -7.9878  -7.9729  -7.9677  -4.0237   1.2111   5.6803
     5.7129   6.3328

          k = 0.6709 0.1677-0.1677 (  2067 PWs)   bands (ev):

    -8.0983  -8.0238  -7.9940  -7.9694  -7.9583  -3.7331   0.8303   5.2980
     5.7299   6.2082

          k =-0.2516-0.7547 0.7547 (  2071 PWs)   bands (ev):

    -8.0999  -8.0149  -8.0011  -7.9707  -7.9555  -3.4919   0.4672   4.8544
     5.8770   6.4634

          k =-0.1677-0.6709 0.6709 (  2070 PWs)   bands (ev):

    -8.0909  -8.0079  -8.0032  -7.9764  -7.9594  -3.4028   0.2628   4.6058
     6.1382   6.8666

          k =-0.0839-0.5870 0.5870 (  2069 PWs)   bands (ev):

    -8.0739  -8.0134  -7.9932  -7.9834  -7.9680  -3.5173   0.2797   4.6191
     6.4718   7.3733

          k = 0.0000-0.5031 0.5031 (  2065 PWs)   bands (ev):

    -8.0534  -8.0175  -7.9976  -7.9794  -7.9777  -3.7758   0.4579   4.9117
     6.7953   7.9258

          k = 0.6709 0.0000 0.0000 (  2064 PWs)   bands (ev):

    -8.1150  -8.0340  -7.9779  -7.9634  -7.9634  -3.8111   1.2650   5.3950
     5.5024   5.5024

          k = 0.7547 0.0839-0.0839 (  2074 PWs)   bands (ev):

    -8.1332  -8.0341  -7.9792  -7.9583  -7.9554  -3.5718   1.1476   4.6377
     5.4322   5.5467

          k =-0.1677-0.8386 0.8386 (  2070 PWs)   bands (ev):

    -8.1364  -8.0280  -7.9848  -7.9591  -7.9520  -3.3699   0.9064   4.1252
     5.5106   5.8055

          k =-0.0839-0.7547 0.7547 (  2080 PWs)   bands (ev):

    -8.1247  -8.0165  -7.9928  -7.9658  -7.9549  -3.2767   0.6327   3.9417
     5.7313   6.2153

          k = 0.0000-0.6709 0.6709 (  2079 PWs)   bands (ev):

    -8.1018  -8.0026  -8.0022  -7.9766  -7.9615  -3.3332   0.4083   4.1180
     6.0699   6.7438

          k = 0.8386 0.0000 0.0000 (  2072 PWs)   bands (ev):

    -8.1569  -8.0392  -7.9728  -7.9508  -7.9508  -3.4019   1.3403   4.0052
     5.2756   5.2756

          k =-0.0839-0.9224 0.9224 (  2070 PWs)   bands (ev):

    -8.1634  -8.0376  -7.9742  -7.9496  -7.9480  -3.2730   1.3132   3.5867
     5.2753   5.3582

          k = 0.0000-0.8386 0.8386 (  2085 PWs)   bands (ev):

    -8.1515  -8.0295  -7.9811  -7.9552  -7.9501  -3.2270   1.0357   3.5657
     5.4319   5.6986

          k =-1.0063 0.0000 0.0000 (  2068 PWs)   bands (ev):

    -8.1733  -8.0411  -7.9709  -7.9460  -7.9460  -3.2357   1.4986   3.3698
     5.1945   5.1945

          k = 0.3354 0.1677 0.0000 (  2054 PWs)   bands (ev):

    -8.0235  -8.0161  -8.0049  -7.9972  -7.9856  -4.6024   1.6708   6.0444
     6.5301   7.6875

          k = 0.4193 0.2516-0.0839 (  2065 PWs)   bands (ev):

    -8.0352  -8.0138  -8.0099  -7.9889  -7.9761  -4.3275   1.1462   5.8307
     6.6694   7.8296

          k = 0.5031 0.3354-0.1677 (  2069 PWs)   bands (ev):

    -8.0457  -8.0175  -8.0089  -7.9805  -7.9676  -4.0012   0.5846   5.7567
     6.6680   7.8328

          k =-0.4193-0.5870 0.7547 (  2065 PWs)   bands (ev):

    -8.0527  -8.0233  -8.0050  -7.9745  -7.9620  -3.7104   0.1290   5.8030
     6.4914   7.8775

          k =-0.3354-0.5031 0.6709 (  2054 PWs)   bands (ev):

    -8.0552  -8.0256  -8.0034  -7.9723  -7.9600  -3.5870  -0.0533   5.8667
     6.3607   7.9179

          k = 0.5031 0.1677 0.0000 (  2057 PWs)   bands (ev):

    -8.0593  -8.0223  -7.9972  -7.9807  -7.9735  -4.2218   1.2433   5.6891
     6.1672   7.1561

          k = 0.5870 0.2516-0.0839 (  2065 PWs)   bands (ev):

    -8.0734  -8.0188  -8.0020  -7.9746  -7.9654  -3.9231   0.8386   5.4529
     6.0422   6.9597

          k =-0.3354-0.6709 0.8386 (  2075 PWs)   bands (ev):

    -8.0809  -8.0127  -8.0066  -7.9745  -7.9593  -3.6354   0.4391   5.3194
     5.7200   7.1712

          k =-0.2516-0.5870 0.7547 (  2064 PWs)   bands (ev):

    -8.0807  -8.0148  -8.0003  -7.9788  -7.9579  -3.4665   0.1904   5.1149
     5.7160   7.4768

          k =-0.1677-0.5031 0.6709 (  2068 PWs)   bands (ev):

    -8.0737  -8.0169  -7.9965  -7.9814  -7.9619  -3.5089   0.2032   4.9784
     5.9820   7.7306

          k =-0.0839-0.4193 0.5870 (  2071 PWs)   bands (ev):

    -8.0619  -8.0157  -8.0031  -7.9776  -7.9696  -3.7385   0.4484   5.0457
     6.3606   7.8271

          k = 0.0000-0.3354 0.5031 (  2060 PWs)   bands (ev):

    -8.0483  -8.0124  -8.0103  -7.9812  -7.9734  -4.0438   0.7983   5.3410
     6.6729   7.8086

          k = 0.6709 0.1677 0.0000 (  2067 PWs)   bands (ev):

    -8.1064  -8.0287  -7.9875  -7.9636  -7.9627  -3.7688   1.0449   5.3337
     5.3536   6.1274

          k =-0.2516-0.7547 0.9224 (  2071 PWs)   bands (ev):

    -8.1160  -8.0235  -7.9921  -7.9641  -7.9558  -3.5157   0.7946   4.7371
     5.1974   6.4549

          k =-0.1677-0.6709 0.8386 (  2072 PWs)   bands (ev):

    -8.1137  -8.0136  -7.9978  -7.9713  -7.9536  -3.3456   0.5510   4.3614
     5.2458   6.8758

          k =-0.0839-0.5870 0.7547 (  2075 PWs)   bands (ev):

    -8.1010  -8.0072  -7.9970  -7.9823  -7.9571  -3.3329   0.4023   4.2837
     5.4861   7.3122

          k = 0.0000-0.5031 0.6709 (  2076 PWs)   bands (ev):

    -8.0820  -8.0115  -7.9941  -7.9848  -7.9644  -3.4866   0.3773   4.5238
     5.8849   7.6757

          k =-0.1677-0.8386 1.0063 (  2079 PWs)   bands (ev):

    -8.1466  -8.0334  -7.9794  -7.9554  -7.9508  -3.3815   1.1190   4.0625
     5.1196   5.8146

          k =-0.0839-0.7547 0.9224 (  2081 PWs)   bands (ev):

    -8.1439  -8.0262  -7.9845  -7.9611  -7.9485  -3.2555   0.9530   3.7634
     5.0147   6.2659

          k = 0.0000-0.6709 0.8386 (  2085 PWs)   bands (ev):

    -8.1270  -8.0143  -7.9928  -7.9714  -7.9513  -3.2372   0.6827   3.8448
     5.1471   6.7858

          k =-1.0063 0.1677 0.0000 (  2074 PWs)   bands (ev):

    -8.1623  -8.0351  -7.9762  -7.9528  -7.9460  -3.2265   1.2593   3.4681
     5.0362   5.7242

          k =-0.3354-0.6709 1.0063 (  2061 PWs)   bands (ev):

    -8.0880  -8.0141  -8.0041  -7.9693  -7.9641  -3.6503   0.6384   4.9784
     5.5380   7.2360

          k =-0.2516-0.5870 0.9224 (  2070 PWs)   bands (ev):

    -8.0971  -8.0087  -8.0028  -7.9779  -7.9569  -3.4234   0.4671   4.7113
     5.0914   7.5688

          k =-0.1677-0.5031 0.8386 (  2072 PWs)   bands (ev):

    -8.1002  -8.0095  -7.9921  -7.9888  -7.9541  -3.3327   0.3964   4.6440
     4.9083   7.7107

          k =-0.1677-0.6709 1.0063 (  2071 PWs)   bands (ev):

    -8.1236  -8.0172  -7.9945  -7.9693  -7.9510  -3.3297   0.7408   4.3001
     4.7294   6.9803

          k =-0.0839-0.5870 0.9224 (  2078 PWs)   bands (ev):

    -8.1213  -8.0069  -7.9973  -7.9816  -7.9485  -3.2368   0.6594   4.1083
     4.5684   7.4556

          k = 0.0000-0.5031 0.8386 (  2079 PWs)   bands (ev):

    -8.1114  -8.0043  -7.9947  -7.9897  -7.9512  -3.2726   0.5546   4.2605
     4.6939   7.7050

          k =-1.0063 0.3354 0.0000 (  2078 PWs)   bands (ev):

    -8.1379  -8.0184  -7.9893  -7.9709  -7.9460  -3.2070   0.8752   3.7490
     4.6413   6.8993

          k =-1.0063 0.5031 0.0000 (  2120 PWs)   bands (ev):

    -8.1237  -7.9978  -7.9951  -7.9951  -7.9461  -3.1967   0.7124   4.1680
     4.1680   7.7156

!    total energy              =    -190.33166034 Ry
     Harris-Foulkes estimate   =    -190.33166034 Ry
     estimated scf accuracy    <          4.8E-11 Ry

     The total energy is the sum of the following terms:

     one-electron contribution =     -35.75999309 Ry
     hartree contribution      =      31.11067432 Ry
     xc contribution           =     -73.85066054 Ry
     ewald contribution        =    -111.83168103 Ry

     convergence has been achieved in  20 iterations

     Forces acting on atoms (Ry/au):


     negative rho (up, down):  0.156E-01 0.000E+00
     atom    1 type  1   force =     0.00000000    0.00000000    0.00000000
     atom    2 type  2   force =     0.00000000    0.00000000    0.00000000

     Total force =     0.000000     Total SCF correction =     0.000000


     entering subroutine stress ...


     negative rho (up, down):  0.156E-01 0.000E+00
          total   stress  (Ry/bohr**3)                   (kbar)     P=   -0.28
  -0.00000190   0.00000000   0.00000000         -0.28      0.00      0.00
   0.00000000  -0.00000190   0.00000000          0.00     -0.28      0.00
   0.00000000   0.00000000  -0.00000190          0.00      0.00     -0.28


     Writing output data file PbS.save
 
     init_run     :      1.09s CPU      1.21s WALL (       1 calls)
     electrons    :     22.98s CPU     24.10s WALL (       1 calls)
     forces       :      0.17s CPU      0.18s WALL (       1 calls)
     stress       :      0.52s CPU      0.53s WALL (       1 calls)

     Called by init_run:
     wfcinit      :      0.32s CPU      0.33s WALL (       1 calls)
     potinit      :      0.09s CPU      0.12s WALL (       1 calls)

     Called by electrons:
     c_bands      :     18.14s CPU     18.43s WALL (      21 calls)
     sum_band     :      2.93s CPU      2.98s WALL (      21 calls)
     v_of_rho     :      0.50s CPU      0.54s WALL (      21 calls)
     newd         :      1.10s CPU      1.10s WALL (      21 calls)
     mix_rho      :      0.05s CPU      0.09s WALL (      21 calls)

     Called by c_bands:
     init_us_2    :      0.20s CPU      0.15s WALL (    1620 calls)
     ccgdiagg     :     14.87s CPU     15.12s WALL (     756 calls)
     wfcrot       :      3.10s CPU      3.11s WALL (     720 calls)

     Called by *cgdiagg:
     h_psi        :     12.86s CPU     13.13s WALL (   26894 calls)
     s_psi        :      0.94s CPU      0.96s WALL (   53068 calls)
     cdiaghg      :      0.11s CPU      0.07s WALL (     720 calls)

     Called by h_psi:
     add_vuspsi   :      0.44s CPU      0.52s WALL (   26894 calls)

     General routines
     calbec       :      2.35s CPU      2.42s WALL (   53896 calls)
     fft          :      0.48s CPU      0.57s WALL (     361 calls)
     ffts         :      0.01s CPU      0.01s WALL (      42 calls)
     fftw         :      9.85s CPU     10.00s WALL (   74524 calls)
     interpolate  :      0.09s CPU      0.09s WALL (      42 calls)
     davcio       :      0.01s CPU      0.10s WALL (    2376 calls)
 
     Parallel routines
     fft_scatter  :      5.24s CPU      5.38s WALL (   74927 calls)
 
     PWSCF        :    25.10s CPU        28.97s WALL

 
   This run was terminated on:  23:26:51  17Aug2014            

=------------------------------------------------------------------------------=
   JOB DONE.
=------------------------------------------------------------------------------=
TACC: Shutting down parallel environment.
TACC: Shutdown complete. Exiting.
