TACC: Starting up job 2117629
TACC: Setting up parallel environment for MVAPICH ssh-based mpirun.
TACC: Setup complete. Running job script.
TACC: starting parallel tasks...

     Program PHONON v.5.0.1 starts on 17Aug2014 at 23:26:54 

     This program is part of the open-source Quantum ESPRESSO suite
     for quantum simulation of materials; please cite
         "P. Giannozzi et al., J. Phys.:Condens. Matter 21 395502 (2009);
          URL http://www.quantum-espresso.org", 
     in publications or presentations arising from this work. More details at
     http://www.quantum-espresso.org/quote.php

     Parallel version (MPI), running on    24 processors
     K-points division:     npool     =    2
     R & G space division:  proc/pool =   12

     Ultrasoft (Vanderbilt) Pseudopotentials

   Info: using nr1, nr2, nr3 values from input

   Info: using nr1s, nr2s, nr3s values from input

     IMPORTANT: XC functional enforced from input :
     Exchange-correlation      = PBESOL ( 1 410 8 0)
     EXX-fraction              =        0.00
     Any further DFT definition will be discarded
     Please, verify this is what you really want

 
     Parallelization info
     --------------------
     sticks:   dense  smooth     PW     G-vecs:    dense   smooth      PW
     Min         213      70     21                 7158     1369     223
     Max         214      71     22                 7162     1382     226
     Sum        2563     847    253                85923    16529    2685
 

     negative rho (up, down):  0.156E-01 0.000E+00


     Dynamical matrices for ( 4, 4, 4)  uniform grid of q-points
     (   8q-points):
       N         xq(1)         xq(2)         xq(3) 
       1   0.000000000   0.000000000   0.000000000
       2   0.251568987   0.251568987  -0.251568987
       3  -0.503137974  -0.503137974   0.503137974
       4   0.503137974   0.000000000   0.000000000
       5  -0.251568987  -0.754706961   0.754706961
       6   0.000000000  -0.503137974   0.503137974
       7  -1.006275948   0.000000000   0.000000000
       8  -1.006275948   0.503137974   0.000000000

     Calculation of q =    0.0000000   0.0000000   0.0000000

                                                                                

     bravais-lattice index     =            0
     lattice parameter (alat)  =      11.2185  a.u.
     unit-cell volume          =     346.4155 (a.u.)^3
     number of atoms/cell      =            2
     number of atomic types    =            2
     kinetic-energy cut-off    =      50.0000  Ry
     charge density cut-off    =     600.0000  Ry
     convergence threshold     =      1.0E-16
     beta                      =       0.7000
     number of iterations used =            4
     Exchange-correlation      = PBESOL ( 1 410 8 0)
     EXX-fraction              =        0.00


     celldm(1)=   11.21854  celldm(2)=    0.00000  celldm(3)=    0.00000
     celldm(4)=    0.00000  celldm(5)=    0.00000  celldm(6)=    0.00000

     crystal axes: (cart. coord. in units of alat)
               a(1) = (  0.0000  0.4969  0.4969 )  
               a(2) = (  0.4969  0.0000  0.4969 )  
               a(3) = (  0.4969  0.4969  0.0000 )  

     reciprocal axes: (cart. coord. in units 2 pi/alat)
               b(1) = ( -1.0063  1.0063  1.0063 )  
               b(2) = (  1.0063 -1.0063  1.0063 )  
               b(3) = (  1.0063  1.0063 -1.0063 )  


     Atoms inside the unit cell: 

   Cartesian axes

     site n.  atom      mass           positions (alat units)
        1        Pb 207.2000   tau( 1) = (    0.00000    0.00000    0.00000  )
        2        S   32.0600   tau( 2) = (    0.49688    0.49688    0.49688  )

     Computing dynamical matrix for 
                    q = (   0.0000000   0.0000000   0.0000000 )
 
     49 Sym.Ops. (with q -> -q+G )


     G cutoff = 1912.7750  (   7162 G-vectors)     FFT grid: ( 64, 64, 64)
     G cutoff =  637.5917  (   1378 G-vectors)  smooth grid: ( 36, 36, 36)
     number of k points=    72

     PseudoPot. # 1 for Pb read from file:
     /work/02599/asmiller/pseudo/gbrv/pbe_GBRV/pb_pbe_v1.uspp.F.UPF
     MD5 check sum: a5f44a0c8587cfbb5a05efeead6b9227
     Pseudo is Ultrasoft + core correction, Zval = 14.0
     Generated by new atomic code, or converted to UPF format
     Using radial grid of  899 points,  6 beta functions with: 
                l(1) =   0
                l(2) =   0
                l(3) =   1
                l(4) =   1
                l(5) =   2
                l(6) =   2
     Q(r) pseudized with  6 coefficients,  rinner =    1.000   1.000   1.000
                                                       1.000   1.000

     PseudoPot. # 2 for S  read from file:
     /work/02599/asmiller/pseudo/gbrv/pbe_GBRV/s_pbe_v1.2.uspp.F.UPF
     MD5 check sum: 18038e556f4a7980c01aa0ca135f6653
     Pseudo is Ultrasoft + core correction, Zval =  6.0
     Generated by new atomic code, or converted to UPF format
     Using radial grid of  907 points,  6 beta functions with: 
                l(1) =   0
                l(2) =   0
                l(3) =   1
                l(4) =   1
                l(5) =   2
                l(6) =   2
     Q(r) pseudized with  8 coefficients,  rinner =    1.300   1.300   1.300
                                                       1.300   1.300


     Electric field:
     Dielectric constant
     Born effective charges in two ways 


     Atomic displacements:
     There are   2 irreducible representations

     Representation     1      3 modes -T_1u G_15  G_4- To be done

     Representation     2      3 modes -T_1u G_15  G_4- To be done



     Alpha used in Ewald sum =   2.8000

     negative rho (up, down):  0.156E-01 0.000E+00
     PHONON       :     4.98s CPU         5.86s WALL


     Electric Fields Calculation

      iter #   1 total cpu time :    25.8 secs   av.it.:   7.3
      thresh= 0.100E-01 alpha_mix =  0.700 |ddv_scf|^2 =  0.392E-07

      iter #   2 total cpu time :    36.7 secs   av.it.:  16.7
      thresh= 0.198E-04 alpha_mix =  0.700 |ddv_scf|^2 =  0.894E-08

      iter #   3 total cpu time :    47.2 secs   av.it.:  16.1
      thresh= 0.946E-05 alpha_mix =  0.700 |ddv_scf|^2 =  0.177E-09

      iter #   4 total cpu time :    57.7 secs   av.it.:  15.7
      thresh= 0.133E-05 alpha_mix =  0.700 |ddv_scf|^2 =  0.144E-10

      iter #   5 total cpu time :    68.1 secs   av.it.:  15.9
      thresh= 0.380E-06 alpha_mix =  0.700 |ddv_scf|^2 =  0.122E-12

      iter #   6 total cpu time :    78.7 secs   av.it.:  16.2
      thresh= 0.349E-07 alpha_mix =  0.700 |ddv_scf|^2 =  0.348E-15

      iter #   7 total cpu time :    89.1 secs   av.it.:  16.1
      thresh= 0.186E-08 alpha_mix =  0.700 |ddv_scf|^2 =  0.126E-16

     End of electric fields calculation

          Dielectric constant in cartesian axis 

          (      35.252411542       0.000000000       0.000000000 )
          (       0.000000000      35.252411542       0.000000000 )
          (       0.000000000       0.000000000      35.252411542 )

          Effective charges (d Force / dE) in cartesian axis

           atom      1   Pb 
      Ex  (        3.69343        0.00000        0.00000 )
      Ey  (        0.00000        3.69343        0.00000 )
      Ez  (        0.00000        0.00000        3.69343 )
           atom      2   S  
      Ex  (       -3.80123        0.00000        0.00000 )
      Ey  (        0.00000       -3.80123        0.00000 )
      Ez  (        0.00000        0.00000       -3.80123 )


     Representation #  1 modes #   1  2  3

     Self-consistent Calculation

      iter #   1 total cpu time :    99.5 secs   av.it.:   5.8
      thresh= 0.100E-01 alpha_mix =  0.700 |ddv_scf|^2 =  0.374E-07

      iter #   2 total cpu time :   110.1 secs   av.it.:  16.5
      thresh= 0.193E-04 alpha_mix =  0.700 |ddv_scf|^2 =  0.812E-08

      iter #   3 total cpu time :   120.6 secs   av.it.:  16.4
      thresh= 0.901E-05 alpha_mix =  0.700 |ddv_scf|^2 =  0.164E-09

      iter #   4 total cpu time :   131.4 secs   av.it.:  17.0
      thresh= 0.128E-05 alpha_mix =  0.700 |ddv_scf|^2 =  0.122E-10

      iter #   5 total cpu time :   142.3 secs   av.it.:  17.2
      thresh= 0.349E-06 alpha_mix =  0.700 |ddv_scf|^2 =  0.462E-13

      iter #   6 total cpu time :   152.8 secs   av.it.:  16.5
      thresh= 0.215E-07 alpha_mix =  0.700 |ddv_scf|^2 =  0.229E-15

      iter #   7 total cpu time :   163.7 secs   av.it.:  17.1
      thresh= 0.151E-08 alpha_mix =  0.700 |ddv_scf|^2 =  0.413E-17

     End of self-consistent calculation

     Convergence has been achieved 


     Representation #  2 modes #   4  5  6

     Self-consistent Calculation

      iter #   1 total cpu time :   171.4 secs   av.it.:   8.1
      thresh= 0.100E-01 alpha_mix =  0.700 |ddv_scf|^2 =  0.436E-06

      iter #   2 total cpu time :   182.5 secs   av.it.:  17.8
      thresh= 0.660E-04 alpha_mix =  0.700 |ddv_scf|^2 =  0.144E-06

      iter #   3 total cpu time :   193.5 secs   av.it.:  17.1
      thresh= 0.380E-04 alpha_mix =  0.700 |ddv_scf|^2 =  0.266E-09

      iter #   4 total cpu time :   204.5 secs   av.it.:  17.9
      thresh= 0.163E-05 alpha_mix =  0.700 |ddv_scf|^2 =  0.140E-10

      iter #   5 total cpu time :   215.6 secs   av.it.:  18.0
      thresh= 0.374E-06 alpha_mix =  0.700 |ddv_scf|^2 =  0.542E-12

      iter #   6 total cpu time :   226.3 secs   av.it.:  16.7
      thresh= 0.736E-07 alpha_mix =  0.700 |ddv_scf|^2 =  0.170E-14

      iter #   7 total cpu time :   236.9 secs   av.it.:  16.7
      thresh= 0.412E-08 alpha_mix =  0.700 |ddv_scf|^2 =  0.117E-15

      iter #   8 total cpu time :   247.3 secs   av.it.:  16.6
      thresh= 0.108E-08 alpha_mix =  0.700 |ddv_scf|^2 =  0.754E-18

     End of self-consistent calculation

     Convergence has been achieved 
 
     Number of q in the star =    1
     List of q in the star:
          1   0.000000000   0.000000000   0.000000000

          Dielectric constant in cartesian axis 

          (      35.252411542       0.000000000       0.000000000 )
          (       0.000000000      35.252411542       0.000000000 )
          (       0.000000000       0.000000000      35.252411542 )

          Effective charges (d Force / dE) in cartesian axis

           atom      1   Pb 
      Ex  (        3.69343        0.00000        0.00000 )
      Ey  (        0.00000        3.69343        0.00000 )
      Ez  (        0.00000        0.00000        3.69343 )
           atom      2   S  
      Ex  (       -3.80123        0.00000        0.00000 )
      Ey  (        0.00000       -3.80123        0.00000 )
      Ez  (        0.00000        0.00000       -3.80123 )

          Effective charges (d P / du) in cartesian axis 

           atom      1   Pb 
      Px  (        3.83284        0.00000        0.00000 )
      Py  (        0.00000        3.83284        0.00000 )
      Pz  (        0.00000        0.00000        3.83284 )
           atom      2   S  
      Px  (       -3.83868        0.00000        0.00000 )
      Py  (        0.00000       -3.83868        0.00000 )
      Pz  (        0.00000        0.00000       -3.83868 )

     Diagonalizing the dynamical matrix

     q = (    0.000000000   0.000000000   0.000000000 ) 

 **************************************************************************
     omega( 1) =      -0.236549 [THz] =      -7.890427 [cm-1]
     omega( 2) =      -0.236549 [THz] =      -7.890427 [cm-1]
     omega( 3) =      -0.236549 [THz] =      -7.890427 [cm-1]
     omega( 4) =       1.967861 [THz] =      65.640767 [cm-1]
     omega( 5) =       1.967861 [THz] =      65.640767 [cm-1]
     omega( 6) =       1.967861 [THz] =      65.640767 [cm-1]
 **************************************************************************

     Mode symmetry, O_h (m-3m)  point group:

     omega(  1 -  3) =         -7.9  [cm-1]   --> T_1u G_15  G_4- I  
     omega(  4 -  6) =         65.6  [cm-1]   --> T_1u G_15  G_4- I  

 **************************************************************************

     Calculation of q =    0.2515690   0.2515690  -0.2515690
 
     Parallelization info
     --------------------
     sticks:   dense  smooth     PW     G-vecs:    dense   smooth      PW
     Min         213      70     22                 7158     1370     236
     Max         214      71     23                 7162     1384     239
     Sum        2563     847    265                85923    16529    2837
 


     bravais-lattice index     =            0
     lattice parameter (alat)  =      11.2185  a.u.
     unit-cell volume          =     346.4155 (a.u.)^3
     number of atoms/cell      =            2
     number of atomic types    =            2
     number of electrons       =        20.00
     number of Kohn-Sham states=           10
     kinetic-energy cutoff     =      50.0000  Ry
     charge density cutoff     =     600.0000  Ry
     Exchange-correlation      = PBESOL ( 1 410 8 0)
     EXX-fraction              =        0.00

     celldm(1)=  11.218536  celldm(2)=   0.000000  celldm(3)=   0.000000
     celldm(4)=   0.000000  celldm(5)=   0.000000  celldm(6)=   0.000000

     crystal axes: (cart. coord. in units of alat)
               a(1) = (   0.000000   0.496882   0.496882 )  
               a(2) = (   0.496882   0.000000   0.496882 )  
               a(3) = (   0.496882   0.496882   0.000000 )  

     reciprocal axes: (cart. coord. in units 2 pi/alat)
               b(1) = ( -1.006276  1.006276  1.006276 )  
               b(2) = (  1.006276 -1.006276  1.006276 )  
               b(3) = (  1.006276  1.006276 -1.006276 )  


     PseudoPot. # 1 for Pb read from file:
     /work/02599/asmiller/pseudo/gbrv/pbe_GBRV/pb_pbe_v1.uspp.F.UPF
     MD5 check sum: a5f44a0c8587cfbb5a05efeead6b9227
     Pseudo is Ultrasoft + core correction, Zval = 14.0
     Generated by new atomic code, or converted to UPF format
     Using radial grid of  899 points,  6 beta functions with: 
                l(1) =   0
                l(2) =   0
                l(3) =   1
                l(4) =   1
                l(5) =   2
                l(6) =   2
     Q(r) pseudized with  6 coefficients,  rinner =    1.000   1.000   1.000
                                                       1.000   1.000

     PseudoPot. # 2 for S  read from file:
     /work/02599/asmiller/pseudo/gbrv/pbe_GBRV/s_pbe_v1.2.uspp.F.UPF
     MD5 check sum: 18038e556f4a7980c01aa0ca135f6653
     Pseudo is Ultrasoft + core correction, Zval =  6.0
     Generated by new atomic code, or converted to UPF format
     Using radial grid of  907 points,  6 beta functions with: 
                l(1) =   0
                l(2) =   0
                l(3) =   1
                l(4) =   1
                l(5) =   2
                l(6) =   2
     Q(r) pseudized with  8 coefficients,  rinner =    1.300   1.300   1.300
                                                       1.300   1.300

     atomic species   valence    mass     pseudopotential
        Pb            14.00   207.20000     Pb( 1.00)
        S              6.00    32.06000     S ( 1.00)

     48 Sym. Ops., with inversion, found



   Cartesian axes

     site n.     atom                  positions (alat units)
         1           Pb  tau(   1) = (   0.0000000   0.0000000   0.0000000  )
         2           S   tau(   2) = (   0.4968816   0.4968816   0.4968816  )

     number of k points=   728

     Number of k-points >= 100: set verbosity='high' to print them.

     Dense  grid:    85923 G-vectors     FFT dimensions: (  64,  64,  64)

     Smooth grid:    16529 G-vectors     FFT dimensions: (  36,  36,  36)

     Largest allocated arrays     est. size (Mb)     dimensions
        Kohn-Sham Wavefunctions         0.03 Mb     (    191,   10)
        NL pseudopotentials             0.10 Mb     (    191,   36)
        Each V/rho on FFT grid          0.38 Mb     (  24576)
        Each G-vector array             0.05 Mb     (   7162)
        G-vector shells                 0.00 Mb     (    620)
     Largest temporary arrays     est. size (Mb)     dimensions
        Auxiliary wavefunctions         0.12 Mb     (    191,   40)
        Each subspace H/S matrix        0.02 Mb     (  40,  40)
        Each <psi_i|beta_j> matrix      0.01 Mb     (     36,   10)

     The potential is recalculated from file :
     ./_ph0/PbS.save/charge-density.dat


     negative rho (up, down):  0.156E-01 0.000E+00
     Starting wfc are   13 atomic wfcs

     total cpu time spent up to now is        0.6 secs

     per-process dynamical memory:    58.2 Mb

     Band Structure Calculation
     Davidson diagonalization with overlap

     ethr =  5.00E-11,  avg # of iterations = 29.1

     total cpu time spent up to now is       44.6 secs

     End of band structure calculation

     Number of k-points >= 100: set verbosity='high' to print the bands.

     Writing output data file PbS.save

                                                                                

     bravais-lattice index     =            0
     lattice parameter (alat)  =      11.2185  a.u.
     unit-cell volume          =     346.4155 (a.u.)^3
     number of atoms/cell      =            2
     number of atomic types    =            2
     kinetic-energy cut-off    =      50.0000  Ry
     charge density cut-off    =     600.0000  Ry
     convergence threshold     =      1.0E-16
     beta                      =       0.7000
     number of iterations used =            4
     Exchange-correlation      = PBESOL ( 1 410 8 0)
     EXX-fraction              =        0.00


     celldm(1)=   11.21854  celldm(2)=    0.00000  celldm(3)=    0.00000
     celldm(4)=    0.00000  celldm(5)=    0.00000  celldm(6)=    0.00000

     crystal axes: (cart. coord. in units of alat)
               a(1) = (  0.0000  0.4969  0.4969 )  
               a(2) = (  0.4969  0.0000  0.4969 )  
               a(3) = (  0.4969  0.4969  0.0000 )  

     reciprocal axes: (cart. coord. in units 2 pi/alat)
               b(1) = ( -1.0063  1.0063  1.0063 )  
               b(2) = (  1.0063 -1.0063  1.0063 )  
               b(3) = (  1.0063  1.0063 -1.0063 )  


     Atoms inside the unit cell: 

   Cartesian axes

     site n.  atom      mass           positions (alat units)
        1        Pb 207.2000   tau( 1) = (    0.00000    0.00000    0.00000  )
        2        S   32.0600   tau( 2) = (    0.49688    0.49688    0.49688  )

     Computing dynamical matrix for 
                    q = (   0.2515690   0.2515690  -0.2515690 )
 
      6 Sym.Ops. (no q -> -q+G )


     G cutoff = 1912.7750  (   7162 G-vectors)     FFT grid: ( 64, 64, 64)
     G cutoff =  637.5917  (   1379 G-vectors)  smooth grid: ( 36, 36, 36)
     number of k points=   728

     PseudoPot. # 1 for Pb read from file:
     /work/02599/asmiller/pseudo/gbrv/pbe_GBRV/pb_pbe_v1.uspp.F.UPF
     MD5 check sum: a5f44a0c8587cfbb5a05efeead6b9227
     Pseudo is Ultrasoft + core correction, Zval = 14.0
     Generated by new atomic code, or converted to UPF format
     Using radial grid of  899 points,  6 beta functions with: 
                l(1) =   0
                l(2) =   0
                l(3) =   1
                l(4) =   1
                l(5) =   2
                l(6) =   2
     Q(r) pseudized with  6 coefficients,  rinner =    1.000   1.000   1.000
                                                       1.000   1.000

     PseudoPot. # 2 for S  read from file:
     /work/02599/asmiller/pseudo/gbrv/pbe_GBRV/s_pbe_v1.2.uspp.F.UPF
     MD5 check sum: 18038e556f4a7980c01aa0ca135f6653
     Pseudo is Ultrasoft + core correction, Zval =  6.0
     Generated by new atomic code, or converted to UPF format
     Using radial grid of  907 points,  6 beta functions with: 
                l(1) =   0
                l(2) =   0
                l(3) =   1
                l(4) =   1
                l(5) =   2
                l(6) =   2
     Q(r) pseudized with  8 coefficients,  rinner =    1.300   1.300   1.300
                                                       1.300   1.300


     Atomic displacements:
     There are   4 irreducible representations

     Representation     1      1 modes -A_1  L_1 To be done

     Representation     2      1 modes -A_1  L_1 To be done

     Representation     3      2 modes -E    L_3 To be done

     Representation     4      2 modes -E    L_3 To be done



     Alpha used in Ewald sum =   2.8000

     negative rho (up, down):  0.156E-01 0.000E+00
     PHONON       :  4m50.95s CPU     4m59.94s WALL



     Representation #  1 mode #   1

     Self-consistent Calculation

      iter #   1 total cpu time :   307.6 secs   av.it.:   6.5
      thresh= 0.100E-01 alpha_mix =  0.700 |ddv_scf|^2 =  0.192E-03

      iter #   2 total cpu time :   321.5 secs   av.it.:  14.3
      thresh= 0.139E-02 alpha_mix =  0.700 |ddv_scf|^2 =  0.546E-02

      iter #   3 total cpu time :   332.3 secs   av.it.:  10.4
      thresh= 0.739E-02 alpha_mix =  0.700 |ddv_scf|^2 =  0.720E-06

      iter #   4 total cpu time :   347.5 secs   av.it.:  15.7
      thresh= 0.849E-04 alpha_mix =  0.700 |ddv_scf|^2 =  0.419E-06

      iter #   5 total cpu time :   361.0 secs   av.it.:  13.6
      thresh= 0.647E-04 alpha_mix =  0.700 |ddv_scf|^2 =  0.136E-08

      iter #   6 total cpu time :   376.4 secs   av.it.:  15.8
      thresh= 0.369E-05 alpha_mix =  0.700 |ddv_scf|^2 =  0.249E-09

      iter #   7 total cpu time :   389.5 secs   av.it.:  13.3
      thresh= 0.158E-05 alpha_mix =  0.700 |ddv_scf|^2 =  0.879E-11

      iter #   8 total cpu time :   403.9 secs   av.it.:  14.7
      thresh= 0.296E-06 alpha_mix =  0.700 |ddv_scf|^2 =  0.186E-10

      iter #   9 total cpu time :   416.3 secs   av.it.:  12.4
      thresh= 0.431E-06 alpha_mix =  0.700 |ddv_scf|^2 =  0.759E-11

      iter #  10 total cpu time :   429.8 secs   av.it.:  13.7
      thresh= 0.275E-06 alpha_mix =  0.700 |ddv_scf|^2 =  0.135E-12

      iter #  11 total cpu time :   443.9 secs   av.it.:  14.4
      thresh= 0.368E-07 alpha_mix =  0.700 |ddv_scf|^2 =  0.135E-13

      iter #  12 total cpu time :   458.3 secs   av.it.:  14.6
      thresh= 0.116E-07 alpha_mix =  0.700 |ddv_scf|^2 =  0.321E-15

      iter #  13 total cpu time :   473.9 secs   av.it.:  16.1
      thresh= 0.179E-08 alpha_mix =  0.700 |ddv_scf|^2 =  0.139E-15

      iter #  14 total cpu time :   488.5 secs   av.it.:  14.9
      thresh= 0.118E-08 alpha_mix =  0.700 |ddv_scf|^2 =  0.281E-16

     End of self-consistent calculation

     Convergence has been achieved 


     Representation #  2 mode #   2

     Self-consistent Calculation

      iter #   1 total cpu time :   499.2 secs   av.it.:   9.8
      thresh= 0.100E-01 alpha_mix =  0.700 |ddv_scf|^2 =  0.104E-02

      iter #   2 total cpu time :   513.2 secs   av.it.:  14.2
      thresh= 0.322E-02 alpha_mix =  0.700 |ddv_scf|^2 =  0.308E-01

      iter #   3 total cpu time :   524.8 secs   av.it.:  11.4
      thresh= 0.100E-01 alpha_mix =  0.700 |ddv_scf|^2 =  0.293E-05

      iter #   4 total cpu time :   539.9 secs   av.it.:  15.5
      thresh= 0.171E-03 alpha_mix =  0.700 |ddv_scf|^2 =  0.298E-06

      iter #   5 total cpu time :   554.7 secs   av.it.:  15.3
      thresh= 0.546E-04 alpha_mix =  0.700 |ddv_scf|^2 =  0.627E-07

      iter #   6 total cpu time :   567.8 secs   av.it.:  13.2
      thresh= 0.250E-04 alpha_mix =  0.700 |ddv_scf|^2 =  0.268E-09

      iter #   7 total cpu time :   582.5 secs   av.it.:  15.0
      thresh= 0.164E-05 alpha_mix =  0.700 |ddv_scf|^2 =  0.121E-09

      iter #   8 total cpu time :   595.7 secs   av.it.:  13.4
      thresh= 0.110E-05 alpha_mix =  0.700 |ddv_scf|^2 =  0.635E-11

      iter #   9 total cpu time :   610.2 secs   av.it.:  14.9
      thresh= 0.252E-06 alpha_mix =  0.700 |ddv_scf|^2 =  0.985E-10

      iter #  10 total cpu time :   622.0 secs   av.it.:  11.8
      thresh= 0.993E-06 alpha_mix =  0.700 |ddv_scf|^2 =  0.644E-13

      iter #  11 total cpu time :   636.5 secs   av.it.:  14.8
      thresh= 0.254E-07 alpha_mix =  0.700 |ddv_scf|^2 =  0.511E-14

      iter #  12 total cpu time :   650.8 secs   av.it.:  14.7
      thresh= 0.715E-08 alpha_mix =  0.700 |ddv_scf|^2 =  0.668E-16

     End of self-consistent calculation

     Convergence has been achieved 


     Representation #  3 modes #   3  4

     Self-consistent Calculation

      iter #   1 total cpu time :   664.1 secs   av.it.:   5.3
      thresh= 0.100E-01 alpha_mix =  0.700 |ddv_scf|^2 =  0.906E-07

      iter #   2 total cpu time :   696.3 secs   av.it.:  17.0
      thresh= 0.301E-04 alpha_mix =  0.700 |ddv_scf|^2 =  0.168E-07

      iter #   3 total cpu time :   728.2 secs   av.it.:  16.8
      thresh= 0.130E-04 alpha_mix =  0.700 |ddv_scf|^2 =  0.310E-09

      iter #   4 total cpu time :   761.1 secs   av.it.:  17.5
      thresh= 0.176E-05 alpha_mix =  0.700 |ddv_scf|^2 =  0.356E-10

      iter #   5 total cpu time :   793.6 secs   av.it.:  17.2
      thresh= 0.596E-06 alpha_mix =  0.700 |ddv_scf|^2 =  0.130E-12

      iter #   6 total cpu time :   825.6 secs   av.it.:  16.9
      thresh= 0.360E-07 alpha_mix =  0.700 |ddv_scf|^2 =  0.910E-15

      iter #   7 total cpu time :   858.4 secs   av.it.:  17.4
      thresh= 0.302E-08 alpha_mix =  0.700 |ddv_scf|^2 =  0.179E-16

     End of self-consistent calculation

     Convergence has been achieved 


     Representation #  4 modes #   5  6

     Self-consistent Calculation

      iter #   1 total cpu time :   877.8 secs   av.it.:   8.7
      thresh= 0.100E-01 alpha_mix =  0.700 |ddv_scf|^2 =  0.103E-05

      iter #   2 total cpu time :   911.5 secs   av.it.:  18.0
      thresh= 0.101E-03 alpha_mix =  0.700 |ddv_scf|^2 =  0.330E-06

      iter #   3 total cpu time :   944.4 secs   av.it.:  17.5
      thresh= 0.574E-04 alpha_mix =  0.700 |ddv_scf|^2 =  0.474E-09

      iter #   4 total cpu time :   978.2 secs   av.it.:  18.1
      thresh= 0.218E-05 alpha_mix =  0.700 |ddv_scf|^2 =  0.371E-10

      iter #   5 total cpu time :  1012.1 secs   av.it.:  18.2
      thresh= 0.609E-06 alpha_mix =  0.700 |ddv_scf|^2 =  0.120E-11

      iter #   6 total cpu time :  1044.6 secs   av.it.:  17.3
      thresh= 0.110E-06 alpha_mix =  0.700 |ddv_scf|^2 =  0.385E-14

      iter #   7 total cpu time :  1076.7 secs   av.it.:  17.0
      thresh= 0.621E-08 alpha_mix =  0.700 |ddv_scf|^2 =  0.231E-15

      iter #   8 total cpu time :  1109.1 secs   av.it.:  17.2
      thresh= 0.152E-08 alpha_mix =  0.700 |ddv_scf|^2 =  0.314E-17

     End of self-consistent calculation

     Convergence has been achieved 
 
     Number of q in the star =    8
     List of q in the star:
          1   0.251568987   0.251568987  -0.251568987
          2  -0.251568987  -0.251568987  -0.251568987
          3   0.251568987  -0.251568987  -0.251568987
          4  -0.251568987  -0.251568987   0.251568987
          5  -0.251568987   0.251568987  -0.251568987
          6   0.251568987   0.251568987   0.251568987
          7  -0.251568987   0.251568987   0.251568987
          8   0.251568987  -0.251568987   0.251568987

     Diagonalizing the dynamical matrix

     q = (    0.251568987   0.251568987  -0.251568987 ) 

 **************************************************************************
     omega( 1) =       1.158351 [THz] =      38.638429 [cm-1]
     omega( 2) =       1.158351 [THz] =      38.638429 [cm-1]
     omega( 3) =       2.172048 [THz] =      72.451712 [cm-1]
     omega( 4) =       4.932111 [THz] =     164.517502 [cm-1]
     omega( 5) =       4.932111 [THz] =     164.517502 [cm-1]
     omega( 6) =       6.900480 [THz] =     230.175244 [cm-1]
 **************************************************************************

     Mode symmetry, C_3v (3m)   point group:

     omega(  1 -  2) =         38.6  [cm-1]   --> E    L_3           
     omega(  3 -  3) =         72.5  [cm-1]   --> A_1  L_1           
     omega(  4 -  5) =        164.5  [cm-1]   --> E    L_3           
     omega(  6 -  6) =        230.2  [cm-1]   --> A_1  L_1           

 **************************************************************************

     Calculation of q =   -0.5031380  -0.5031380   0.5031380
 
     Parallelization info
     --------------------
     sticks:   dense  smooth     PW     G-vecs:    dense   smooth      PW
     Min         213      70     24                 7158     1368     273
     Max         214      71     25                 7162     1391     275
     Sum        2563     847    295                85923    16529    3287
 


     bravais-lattice index     =            0
     lattice parameter (alat)  =      11.2185  a.u.
     unit-cell volume          =     346.4155 (a.u.)^3
     number of atoms/cell      =            2
     number of atomic types    =            2
     number of electrons       =        20.00
     number of Kohn-Sham states=           10
     kinetic-energy cutoff     =      50.0000  Ry
     charge density cutoff     =     600.0000  Ry
     Exchange-correlation      = PBESOL ( 1 410 8 0)
     EXX-fraction              =        0.00

     celldm(1)=  11.218536  celldm(2)=   0.000000  celldm(3)=   0.000000
     celldm(4)=   0.000000  celldm(5)=   0.000000  celldm(6)=   0.000000

     crystal axes: (cart. coord. in units of alat)
               a(1) = (   0.000000   0.496882   0.496882 )  
               a(2) = (   0.496882   0.000000   0.496882 )  
               a(3) = (   0.496882   0.496882   0.000000 )  

     reciprocal axes: (cart. coord. in units 2 pi/alat)
               b(1) = ( -1.006276  1.006276  1.006276 )  
               b(2) = (  1.006276 -1.006276  1.006276 )  
               b(3) = (  1.006276  1.006276 -1.006276 )  


     PseudoPot. # 1 for Pb read from file:
     /work/02599/asmiller/pseudo/gbrv/pbe_GBRV/pb_pbe_v1.uspp.F.UPF
     MD5 check sum: a5f44a0c8587cfbb5a05efeead6b9227
     Pseudo is Ultrasoft + core correction, Zval = 14.0
     Generated by new atomic code, or converted to UPF format
     Using radial grid of  899 points,  6 beta functions with: 
                l(1) =   0
                l(2) =   0
                l(3) =   1
                l(4) =   1
                l(5) =   2
                l(6) =   2
     Q(r) pseudized with  6 coefficients,  rinner =    1.000   1.000   1.000
                                                       1.000   1.000

     PseudoPot. # 2 for S  read from file:
     /work/02599/asmiller/pseudo/gbrv/pbe_GBRV/s_pbe_v1.2.uspp.F.UPF
     MD5 check sum: 18038e556f4a7980c01aa0ca135f6653
     Pseudo is Ultrasoft + core correction, Zval =  6.0
     Generated by new atomic code, or converted to UPF format
     Using radial grid of  907 points,  6 beta functions with: 
                l(1) =   0
                l(2) =   0
                l(3) =   1
                l(4) =   1
                l(5) =   2
                l(6) =   2
     Q(r) pseudized with  8 coefficients,  rinner =    1.300   1.300   1.300
                                                       1.300   1.300

     atomic species   valence    mass     pseudopotential
        Pb            14.00   207.20000     Pb( 1.00)
        S              6.00    32.06000     S ( 1.00)

     48 Sym. Ops., with inversion, found



   Cartesian axes

     site n.     atom                  positions (alat units)
         1           Pb  tau(   1) = (   0.0000000   0.0000000   0.0000000  )
         2           S   tau(   2) = (   0.4968816   0.4968816   0.4968816  )

     number of k points=   378

     Number of k-points >= 100: set verbosity='high' to print them.

     Dense  grid:    85923 G-vectors     FFT dimensions: (  64,  64,  64)

     Smooth grid:    16529 G-vectors     FFT dimensions: (  36,  36,  36)

     Largest allocated arrays     est. size (Mb)     dimensions
        Kohn-Sham Wavefunctions         0.03 Mb     (    187,   10)
        NL pseudopotentials             0.10 Mb     (    187,   36)
        Each V/rho on FFT grid          0.38 Mb     (  24576)
        Each G-vector array             0.05 Mb     (   7162)
        G-vector shells                 0.00 Mb     (    623)
     Largest temporary arrays     est. size (Mb)     dimensions
        Auxiliary wavefunctions         0.11 Mb     (    187,   40)
        Each subspace H/S matrix        0.02 Mb     (  40,  40)
        Each <psi_i|beta_j> matrix      0.01 Mb     (     36,   10)

     The potential is recalculated from file :
     ./_ph0/PbS.save/charge-density.dat


     negative rho (up, down):  0.156E-01 0.000E+00
     Starting wfc are   13 atomic wfcs

     total cpu time spent up to now is       46.4 secs

     per-process dynamical memory:    67.7 Mb

     Band Structure Calculation
     Davidson diagonalization with overlap

     ethr =  5.00E-11,  avg # of iterations = 28.8

     total cpu time spent up to now is       69.4 secs

     End of band structure calculation

     Number of k-points >= 100: set verbosity='high' to print the bands.

     Writing output data file PbS.save

                                                                                

     bravais-lattice index     =            0
     lattice parameter (alat)  =      11.2185  a.u.
     unit-cell volume          =     346.4155 (a.u.)^3
     number of atoms/cell      =            2
     number of atomic types    =            2
     kinetic-energy cut-off    =      50.0000  Ry
     charge density cut-off    =     600.0000  Ry
     convergence threshold     =      1.0E-16
     beta                      =       0.7000
     number of iterations used =            4
     Exchange-correlation      = PBESOL ( 1 410 8 0)
     EXX-fraction              =        0.00


     celldm(1)=   11.21854  celldm(2)=    0.00000  celldm(3)=    0.00000
     celldm(4)=    0.00000  celldm(5)=    0.00000  celldm(6)=    0.00000

     crystal axes: (cart. coord. in units of alat)
               a(1) = (  0.0000  0.4969  0.4969 )  
               a(2) = (  0.4969  0.0000  0.4969 )  
               a(3) = (  0.4969  0.4969  0.0000 )  

     reciprocal axes: (cart. coord. in units 2 pi/alat)
               b(1) = ( -1.0063  1.0063  1.0063 )  
               b(2) = (  1.0063 -1.0063  1.0063 )  
               b(3) = (  1.0063  1.0063 -1.0063 )  


     Atoms inside the unit cell: 

   Cartesian axes

     site n.  atom      mass           positions (alat units)
        1        Pb 207.2000   tau( 1) = (    0.00000    0.00000    0.00000  )
        2        S   32.0600   tau( 2) = (    0.49688    0.49688    0.49688  )

     Computing dynamical matrix for 
                    q = (  -0.5031380  -0.5031380   0.5031380 )
 
     13 Sym.Ops. (with q -> -q+G )


     G cutoff = 1912.7750  (   7162 G-vectors)     FFT grid: ( 64, 64, 64)
     G cutoff =  637.5917  (   1382 G-vectors)  smooth grid: ( 36, 36, 36)
     number of k points=   378

     PseudoPot. # 1 for Pb read from file:
     /work/02599/asmiller/pseudo/gbrv/pbe_GBRV/pb_pbe_v1.uspp.F.UPF
     MD5 check sum: a5f44a0c8587cfbb5a05efeead6b9227
     Pseudo is Ultrasoft + core correction, Zval = 14.0
     Generated by new atomic code, or converted to UPF format
     Using radial grid of  899 points,  6 beta functions with: 
                l(1) =   0
                l(2) =   0
                l(3) =   1
                l(4) =   1
                l(5) =   2
                l(6) =   2
     Q(r) pseudized with  6 coefficients,  rinner =    1.000   1.000   1.000
                                                       1.000   1.000

     PseudoPot. # 2 for S  read from file:
     /work/02599/asmiller/pseudo/gbrv/pbe_GBRV/s_pbe_v1.2.uspp.F.UPF
     MD5 check sum: 18038e556f4a7980c01aa0ca135f6653
     Pseudo is Ultrasoft + core correction, Zval =  6.0
     Generated by new atomic code, or converted to UPF format
     Using radial grid of  907 points,  6 beta functions with: 
                l(1) =   0
                l(2) =   0
                l(3) =   1
                l(4) =   1
                l(5) =   2
                l(6) =   2
     Q(r) pseudized with  8 coefficients,  rinner =    1.300   1.300   1.300
                                                       1.300   1.300


     Atomic displacements:
     There are   4 irreducible representations

     Representation     1      1 modes -A_1g L_1 To be done

     Representation     2      2 modes -E_g  L_3 To be done

     Representation     3      1 modes -A_2u L_2' To be done

     Representation     4      2 modes -E_u  L_3' To be done



     Alpha used in Ewald sum =   2.8000

     negative rho (up, down):  0.156E-01 0.000E+00
     PHONON       : 18m34.77s CPU    18m58.16s WALL



     Representation #  1 mode #   1

     Self-consistent Calculation

      iter #   1 total cpu time :  1141.8 secs   av.it.:   5.0
      thresh= 0.100E-01 alpha_mix =  0.700 |ddv_scf|^2 =  0.131E-04

      iter #   2 total cpu time :  1149.2 secs   av.it.:  14.0
      thresh= 0.362E-03 alpha_mix =  0.700 |ddv_scf|^2 =  0.425E-04

      iter #   3 total cpu time :  1155.7 secs   av.it.:  12.2
      thresh= 0.652E-03 alpha_mix =  0.700 |ddv_scf|^2 =  0.331E-08

      iter #   4 total cpu time :  1164.0 secs   av.it.:  16.1
      thresh= 0.575E-05 alpha_mix =  0.700 |ddv_scf|^2 =  0.299E-09

      iter #   5 total cpu time :  1172.0 secs   av.it.:  15.3
      thresh= 0.173E-05 alpha_mix =  0.700 |ddv_scf|^2 =  0.409E-11

      iter #   6 total cpu time :  1179.6 secs   av.it.:  14.7
      thresh= 0.202E-06 alpha_mix =  0.700 |ddv_scf|^2 =  0.416E-13

      iter #   7 total cpu time :  1187.6 secs   av.it.:  15.5
      thresh= 0.204E-07 alpha_mix =  0.700 |ddv_scf|^2 =  0.177E-15

      iter #   8 total cpu time :  1195.5 secs   av.it.:  15.3
      thresh= 0.133E-08 alpha_mix =  0.700 |ddv_scf|^2 =  0.688E-16

     End of self-consistent calculation

     Convergence has been achieved 


     Representation #  2 modes #   2  3

     Self-consistent Calculation

      iter #   1 total cpu time :  1202.3 secs   av.it.:   4.9
      thresh= 0.100E-01 alpha_mix =  0.700 |ddv_scf|^2 =  0.979E-07

      iter #   2 total cpu time :  1218.3 secs   av.it.:  15.7
      thresh= 0.313E-04 alpha_mix =  0.700 |ddv_scf|^2 =  0.161E-07

      iter #   3 total cpu time :  1234.3 secs   av.it.:  15.9
      thresh= 0.127E-04 alpha_mix =  0.700 |ddv_scf|^2 =  0.166E-09

      iter #   4 total cpu time :  1250.5 secs   av.it.:  15.9
      thresh= 0.129E-05 alpha_mix =  0.700 |ddv_scf|^2 =  0.720E-12

      iter #   5 total cpu time :  1267.2 secs   av.it.:  16.6
      thresh= 0.849E-07 alpha_mix =  0.700 |ddv_scf|^2 =  0.405E-14

      iter #   6 total cpu time :  1284.2 secs   av.it.:  17.0
      thresh= 0.637E-08 alpha_mix =  0.700 |ddv_scf|^2 =  0.266E-16

     End of self-consistent calculation

     Convergence has been achieved 


     Representation #  3 mode #   4

     Self-consistent Calculation

      iter #   1 total cpu time :  1290.1 secs   av.it.:   9.8
      thresh= 0.100E-01 alpha_mix =  0.700 |ddv_scf|^2 =  0.898E-04

      iter #   2 total cpu time :  1298.0 secs   av.it.:  15.2
      thresh= 0.948E-03 alpha_mix =  0.700 |ddv_scf|^2 =  0.483E-03

      iter #   3 total cpu time :  1304.6 secs   av.it.:  12.6
      thresh= 0.220E-02 alpha_mix =  0.700 |ddv_scf|^2 =  0.944E-06

      iter #   4 total cpu time :  1312.3 secs   av.it.:  14.6
      thresh= 0.972E-04 alpha_mix =  0.700 |ddv_scf|^2 =  0.185E-07

      iter #   5 total cpu time :  1319.5 secs   av.it.:  13.8
      thresh= 0.136E-04 alpha_mix =  0.700 |ddv_scf|^2 =  0.414E-09

      iter #   6 total cpu time :  1327.1 secs   av.it.:  14.6
      thresh= 0.203E-05 alpha_mix =  0.700 |ddv_scf|^2 =  0.427E-12

      iter #   7 total cpu time :  1334.9 secs   av.it.:  15.2
      thresh= 0.653E-07 alpha_mix =  0.700 |ddv_scf|^2 =  0.129E-13

      iter #   8 total cpu time :  1341.9 secs   av.it.:  13.3
      thresh= 0.114E-07 alpha_mix =  0.700 |ddv_scf|^2 =  0.815E-15

      iter #   9 total cpu time :  1349.1 secs   av.it.:  13.9
      thresh= 0.285E-08 alpha_mix =  0.700 |ddv_scf|^2 =  0.153E-16

     End of self-consistent calculation

     Convergence has been achieved 


     Representation #  4 modes #   5  6

     Self-consistent Calculation

      iter #   1 total cpu time :  1359.3 secs   av.it.:   8.5
      thresh= 0.100E-01 alpha_mix =  0.700 |ddv_scf|^2 =  0.108E-05

      iter #   2 total cpu time :  1376.6 secs   av.it.:  17.3
      thresh= 0.104E-03 alpha_mix =  0.700 |ddv_scf|^2 =  0.340E-06

      iter #   3 total cpu time :  1393.2 secs   av.it.:  16.6
      thresh= 0.583E-04 alpha_mix =  0.700 |ddv_scf|^2 =  0.203E-09

      iter #   4 total cpu time :  1410.6 secs   av.it.:  17.5
      thresh= 0.142E-05 alpha_mix =  0.700 |ddv_scf|^2 =  0.590E-11

      iter #   5 total cpu time :  1427.0 secs   av.it.:  16.3
      thresh= 0.243E-06 alpha_mix =  0.700 |ddv_scf|^2 =  0.316E-13

      iter #   6 total cpu time :  1443.9 secs   av.it.:  16.8
      thresh= 0.178E-07 alpha_mix =  0.700 |ddv_scf|^2 =  0.603E-15

      iter #   7 total cpu time :  1460.4 secs   av.it.:  16.5
      thresh= 0.246E-08 alpha_mix =  0.700 |ddv_scf|^2 =  0.470E-17

     End of self-consistent calculation

     Convergence has been achieved 
 
     Number of q in the star =    4
     List of q in the star:
          1  -0.503137974  -0.503137974   0.503137974
          2  -0.503137974  -0.503137974  -0.503137974
          3  -0.503137974   0.503137974   0.503137974
          4  -0.503137974   0.503137974  -0.503137974

     Diagonalizing the dynamical matrix

     q = (   -0.503137974  -0.503137974   0.503137974 ) 

 **************************************************************************
     omega( 1) =       1.597269 [THz] =      53.279165 [cm-1]
     omega( 2) =       1.597269 [THz] =      53.279165 [cm-1]
     omega( 3) =       3.190807 [THz] =     106.433866 [cm-1]
     omega( 4) =       5.888833 [THz] =     196.430328 [cm-1]
     omega( 5) =       5.888833 [THz] =     196.430328 [cm-1]
     omega( 6) =       6.965038 [THz] =     232.328660 [cm-1]
 **************************************************************************

     Mode symmetry, D_3d (-3m)  point group:

     omega(  1 -  2) =         53.3  [cm-1]   --> E_u  L_3'          
     omega(  3 -  3) =        106.4  [cm-1]   --> A_2u L_2'          
     omega(  4 -  5) =        196.4  [cm-1]   --> E_g  L_3           
     omega(  6 -  6) =        232.3  [cm-1]   --> A_1g L_1           

 **************************************************************************

     Calculation of q =    0.5031380   0.0000000   0.0000000
 
     Parallelization info
     --------------------
     sticks:   dense  smooth     PW     G-vecs:    dense   smooth      PW
     Min         213      70     22                 7158     1370     240
     Max         214      71     23                 7162     1382     243
     Sum        2563     847    265                85923    16529    2891
 


     bravais-lattice index     =            0
     lattice parameter (alat)  =      11.2185  a.u.
     unit-cell volume          =     346.4155 (a.u.)^3
     number of atoms/cell      =            2
     number of atomic types    =            2
     number of electrons       =        20.00
     number of Kohn-Sham states=           10
     kinetic-energy cutoff     =      50.0000  Ry
     charge density cutoff     =     600.0000  Ry
     Exchange-correlation      = PBESOL ( 1 410 8 0)
     EXX-fraction              =        0.00

     celldm(1)=  11.218536  celldm(2)=   0.000000  celldm(3)=   0.000000
     celldm(4)=   0.000000  celldm(5)=   0.000000  celldm(6)=   0.000000

     crystal axes: (cart. coord. in units of alat)
               a(1) = (   0.000000   0.496882   0.496882 )  
               a(2) = (   0.496882   0.000000   0.496882 )  
               a(3) = (   0.496882   0.496882   0.000000 )  

     reciprocal axes: (cart. coord. in units 2 pi/alat)
               b(1) = ( -1.006276  1.006276  1.006276 )  
               b(2) = (  1.006276 -1.006276  1.006276 )  
               b(3) = (  1.006276  1.006276 -1.006276 )  


     PseudoPot. # 1 for Pb read from file:
     /work/02599/asmiller/pseudo/gbrv/pbe_GBRV/pb_pbe_v1.uspp.F.UPF
     MD5 check sum: a5f44a0c8587cfbb5a05efeead6b9227
     Pseudo is Ultrasoft + core correction, Zval = 14.0
     Generated by new atomic code, or converted to UPF format
     Using radial grid of  899 points,  6 beta functions with: 
                l(1) =   0
                l(2) =   0
                l(3) =   1
                l(4) =   1
                l(5) =   2
                l(6) =   2
     Q(r) pseudized with  6 coefficients,  rinner =    1.000   1.000   1.000
                                                       1.000   1.000

     PseudoPot. # 2 for S  read from file:
     /work/02599/asmiller/pseudo/gbrv/pbe_GBRV/s_pbe_v1.2.uspp.F.UPF
     MD5 check sum: 18038e556f4a7980c01aa0ca135f6653
     Pseudo is Ultrasoft + core correction, Zval =  6.0
     Generated by new atomic code, or converted to UPF format
     Using radial grid of  907 points,  6 beta functions with: 
                l(1) =   0
                l(2) =   0
                l(3) =   1
                l(4) =   1
                l(5) =   2
                l(6) =   2
     Q(r) pseudized with  8 coefficients,  rinner =    1.300   1.300   1.300
                                                       1.300   1.300

     atomic species   valence    mass     pseudopotential
        Pb            14.00   207.20000     Pb( 1.00)
        S              6.00    32.06000     S ( 1.00)

     48 Sym. Ops., with inversion, found



   Cartesian axes

     site n.     atom                  positions (alat units)
         1           Pb  tau(   1) = (   0.0000000   0.0000000   0.0000000  )
         2           S   tau(   2) = (   0.4968816   0.4968816   0.4968816  )

     number of k points=   588

     Number of k-points >= 100: set verbosity='high' to print them.

     Dense  grid:    85923 G-vectors     FFT dimensions: (  64,  64,  64)

     Smooth grid:    16529 G-vectors     FFT dimensions: (  36,  36,  36)

     Largest allocated arrays     est. size (Mb)     dimensions
        Kohn-Sham Wavefunctions         0.03 Mb     (    190,   10)
        NL pseudopotentials             0.10 Mb     (    190,   36)
        Each V/rho on FFT grid          0.38 Mb     (  24576)
        Each G-vector array             0.05 Mb     (   7162)
        G-vector shells                 0.00 Mb     (    620)
     Largest temporary arrays     est. size (Mb)     dimensions
        Auxiliary wavefunctions         0.12 Mb     (    190,   40)
        Each subspace H/S matrix        0.02 Mb     (  40,  40)
        Each <psi_i|beta_j> matrix      0.01 Mb     (     36,   10)

     The potential is recalculated from file :
     ./_ph0/PbS.save/charge-density.dat


     negative rho (up, down):  0.156E-01 0.000E+00
     Starting wfc are   13 atomic wfcs

     total cpu time spent up to now is       70.6 secs

     per-process dynamical memory:    67.7 Mb

     Band Structure Calculation
     Davidson diagonalization with overlap

     ethr =  5.00E-11,  avg # of iterations = 28.6

     total cpu time spent up to now is      105.1 secs

     End of band structure calculation

     Number of k-points >= 100: set verbosity='high' to print the bands.

     Writing output data file PbS.save

                                                                                

     bravais-lattice index     =            0
     lattice parameter (alat)  =      11.2185  a.u.
     unit-cell volume          =     346.4155 (a.u.)^3
     number of atoms/cell      =            2
     number of atomic types    =            2
     kinetic-energy cut-off    =      50.0000  Ry
     charge density cut-off    =     600.0000  Ry
     convergence threshold     =      1.0E-16
     beta                      =       0.7000
     number of iterations used =            4
     Exchange-correlation      = PBESOL ( 1 410 8 0)
     EXX-fraction              =        0.00


     celldm(1)=   11.21854  celldm(2)=    0.00000  celldm(3)=    0.00000
     celldm(4)=    0.00000  celldm(5)=    0.00000  celldm(6)=    0.00000

     crystal axes: (cart. coord. in units of alat)
               a(1) = (  0.0000  0.4969  0.4969 )  
               a(2) = (  0.4969  0.0000  0.4969 )  
               a(3) = (  0.4969  0.4969  0.0000 )  

     reciprocal axes: (cart. coord. in units 2 pi/alat)
               b(1) = ( -1.0063  1.0063  1.0063 )  
               b(2) = (  1.0063 -1.0063  1.0063 )  
               b(3) = (  1.0063  1.0063 -1.0063 )  


     Atoms inside the unit cell: 

   Cartesian axes

     site n.  atom      mass           positions (alat units)
        1        Pb 207.2000   tau( 1) = (    0.00000    0.00000    0.00000  )
        2        S   32.0600   tau( 2) = (    0.49688    0.49688    0.49688  )

     Computing dynamical matrix for 
                    q = (   0.5031380   0.0000000   0.0000000 )
 
      8 Sym.Ops. (no q -> -q+G )


     G cutoff = 1912.7750  (   7162 G-vectors)     FFT grid: ( 64, 64, 64)
     G cutoff =  637.5917  (   1381 G-vectors)  smooth grid: ( 36, 36, 36)
     number of k points=   588

     PseudoPot. # 1 for Pb read from file:
     /work/02599/asmiller/pseudo/gbrv/pbe_GBRV/pb_pbe_v1.uspp.F.UPF
     MD5 check sum: a5f44a0c8587cfbb5a05efeead6b9227
     Pseudo is Ultrasoft + core correction, Zval = 14.0
     Generated by new atomic code, or converted to UPF format
     Using radial grid of  899 points,  6 beta functions with: 
                l(1) =   0
                l(2) =   0
                l(3) =   1
                l(4) =   1
                l(5) =   2
                l(6) =   2
     Q(r) pseudized with  6 coefficients,  rinner =    1.000   1.000   1.000
                                                       1.000   1.000

     PseudoPot. # 2 for S  read from file:
     /work/02599/asmiller/pseudo/gbrv/pbe_GBRV/s_pbe_v1.2.uspp.F.UPF
     MD5 check sum: 18038e556f4a7980c01aa0ca135f6653
     Pseudo is Ultrasoft + core correction, Zval =  6.0
     Generated by new atomic code, or converted to UPF format
     Using radial grid of  907 points,  6 beta functions with: 
                l(1) =   0
                l(2) =   0
                l(3) =   1
                l(4) =   1
                l(5) =   2
                l(6) =   2
     Q(r) pseudized with  8 coefficients,  rinner =    1.300   1.300   1.300
                                                       1.300   1.300


     Atomic displacements:
     There are   4 irreducible representations

     Representation     1      1 modes -A_1  G_1 D_1 To be done

     Representation     2      1 modes -A_1  G_1 D_1 To be done

     Representation     3      2 modes -E    G_5 D_5 To be done

     Representation     4      2 modes -E    G_5 D_5 To be done



     Alpha used in Ewald sum =   2.8000

     negative rho (up, down):  0.156E-01 0.000E+00
     PHONON       : 24m29.45s CPU    25m 1.66s WALL



     Representation #  1 mode #   1

     Self-consistent Calculation

      iter #   1 total cpu time :  1508.0 secs   av.it.:   6.8
      thresh= 0.100E-01 alpha_mix =  0.700 |ddv_scf|^2 =  0.667E-04

      iter #   2 total cpu time :  1519.1 secs   av.it.:  13.9
      thresh= 0.817E-03 alpha_mix =  0.700 |ddv_scf|^2 =  0.721E-03

      iter #   3 total cpu time :  1528.2 secs   av.it.:  10.9
      thresh= 0.269E-02 alpha_mix =  0.700 |ddv_scf|^2 =  0.125E-06

      iter #   4 total cpu time :  1540.2 secs   av.it.:  15.3
      thresh= 0.354E-04 alpha_mix =  0.700 |ddv_scf|^2 =  0.568E-07

      iter #   5 total cpu time :  1550.9 secs   av.it.:  13.3
      thresh= 0.238E-04 alpha_mix =  0.700 |ddv_scf|^2 =  0.168E-09

      iter #   6 total cpu time :  1563.4 secs   av.it.:  16.0
      thresh= 0.130E-05 alpha_mix =  0.700 |ddv_scf|^2 =  0.122E-10

      iter #   7 total cpu time :  1575.7 secs   av.it.:  15.8
      thresh= 0.349E-06 alpha_mix =  0.700 |ddv_scf|^2 =  0.619E-11

      iter #   8 total cpu time :  1586.9 secs   av.it.:  14.0
      thresh= 0.249E-06 alpha_mix =  0.700 |ddv_scf|^2 =  0.936E-13

      iter #   9 total cpu time :  1598.7 secs   av.it.:  15.1
      thresh= 0.306E-07 alpha_mix =  0.700 |ddv_scf|^2 =  0.565E-15

      iter #  10 total cpu time :  1611.1 secs   av.it.:  15.8
      thresh= 0.238E-08 alpha_mix =  0.700 |ddv_scf|^2 =  0.423E-16

     End of self-consistent calculation

     Convergence has been achieved 


     Representation #  2 mode #   2

     Self-consistent Calculation

      iter #   1 total cpu time :  1619.3 secs   av.it.:   9.1
      thresh= 0.100E-01 alpha_mix =  0.700 |ddv_scf|^2 =  0.367E-03

      iter #   2 total cpu time :  1630.4 secs   av.it.:  14.0
      thresh= 0.192E-02 alpha_mix =  0.700 |ddv_scf|^2 =  0.421E-02

      iter #   3 total cpu time :  1639.4 secs   av.it.:  10.9
      thresh= 0.649E-02 alpha_mix =  0.700 |ddv_scf|^2 =  0.159E-05

      iter #   4 total cpu time :  1650.9 secs   av.it.:  14.7
      thresh= 0.126E-03 alpha_mix =  0.700 |ddv_scf|^2 =  0.176E-07

      iter #   5 total cpu time :  1663.1 secs   av.it.:  15.5
      thresh= 0.133E-04 alpha_mix =  0.700 |ddv_scf|^2 =  0.600E-08

      iter #   6 total cpu time :  1674.7 secs   av.it.:  14.7
      thresh= 0.775E-05 alpha_mix =  0.700 |ddv_scf|^2 =  0.186E-09

      iter #   7 total cpu time :  1686.1 secs   av.it.:  14.5
      thresh= 0.136E-05 alpha_mix =  0.700 |ddv_scf|^2 =  0.125E-11

      iter #   8 total cpu time :  1698.1 secs   av.it.:  15.3
      thresh= 0.112E-06 alpha_mix =  0.700 |ddv_scf|^2 =  0.364E-12

      iter #   9 total cpu time :  1709.2 secs   av.it.:  14.0
      thresh= 0.603E-07 alpha_mix =  0.700 |ddv_scf|^2 =  0.324E-13

      iter #  10 total cpu time :  1720.4 secs   av.it.:  14.0
      thresh= 0.180E-07 alpha_mix =  0.700 |ddv_scf|^2 =  0.635E-15

      iter #  11 total cpu time :  1732.5 secs   av.it.:  15.4
      thresh= 0.252E-08 alpha_mix =  0.700 |ddv_scf|^2 =  0.438E-15

      iter #  12 total cpu time :  1743.9 secs   av.it.:  14.5
      thresh= 0.209E-08 alpha_mix =  0.700 |ddv_scf|^2 =  0.105E-15

      iter #  13 total cpu time :  1755.0 secs   av.it.:  14.0
      thresh= 0.103E-08 alpha_mix =  0.700 |ddv_scf|^2 =  0.242E-16

     End of self-consistent calculation

     Convergence has been achieved 


     Representation #  3 modes #   3  4

     Self-consistent Calculation

      iter #   1 total cpu time :  1766.8 secs   av.it.:   6.0
      thresh= 0.100E-01 alpha_mix =  0.700 |ddv_scf|^2 =  0.132E-06

      iter #   2 total cpu time :  1792.8 secs   av.it.:  17.1
      thresh= 0.363E-04 alpha_mix =  0.700 |ddv_scf|^2 =  0.449E-07

      iter #   3 total cpu time :  1818.1 secs   av.it.:  16.7
      thresh= 0.212E-04 alpha_mix =  0.700 |ddv_scf|^2 =  0.482E-09

      iter #   4 total cpu time :  1844.1 secs   av.it.:  17.2
      thresh= 0.219E-05 alpha_mix =  0.700 |ddv_scf|^2 =  0.288E-10

      iter #   5 total cpu time :  1870.1 secs   av.it.:  17.2
      thresh= 0.537E-06 alpha_mix =  0.700 |ddv_scf|^2 =  0.208E-12

      iter #   6 total cpu time :  1894.7 secs   av.it.:  16.1
      thresh= 0.456E-07 alpha_mix =  0.700 |ddv_scf|^2 =  0.824E-15

      iter #   7 total cpu time :  1921.0 secs   av.it.:  17.3
      thresh= 0.287E-08 alpha_mix =  0.700 |ddv_scf|^2 =  0.200E-16

     End of self-consistent calculation

     Convergence has been achieved 


     Representation #  4 modes #   5  6

     Self-consistent Calculation

      iter #   1 total cpu time :  1936.0 secs   av.it.:   8.3
      thresh= 0.100E-01 alpha_mix =  0.700 |ddv_scf|^2 =  0.135E-05

      iter #   2 total cpu time :  1962.6 secs   av.it.:  17.5
      thresh= 0.116E-03 alpha_mix =  0.700 |ddv_scf|^2 =  0.620E-06

      iter #   3 total cpu time :  1988.1 secs   av.it.:  16.7
      thresh= 0.788E-04 alpha_mix =  0.700 |ddv_scf|^2 =  0.754E-09

      iter #   4 total cpu time :  2015.0 secs   av.it.:  17.6
      thresh= 0.275E-05 alpha_mix =  0.700 |ddv_scf|^2 =  0.378E-10

      iter #   5 total cpu time :  2041.7 secs   av.it.:  17.6
      thresh= 0.615E-06 alpha_mix =  0.700 |ddv_scf|^2 =  0.159E-11

      iter #   6 total cpu time :  2067.2 secs   av.it.:  16.7
      thresh= 0.126E-06 alpha_mix =  0.700 |ddv_scf|^2 =  0.488E-14

      iter #   7 total cpu time :  2092.8 secs   av.it.:  16.8
      thresh= 0.698E-08 alpha_mix =  0.700 |ddv_scf|^2 =  0.319E-15

      iter #   8 total cpu time :  2118.5 secs   av.it.:  16.8
      thresh= 0.179E-08 alpha_mix =  0.700 |ddv_scf|^2 =  0.256E-17

     End of self-consistent calculation

     Convergence has been achieved 
 
     Number of q in the star =    6
     List of q in the star:
          1   0.503137974   0.000000000   0.000000000
          2   0.000000000   0.000000000   0.503137974
          3   0.000000000  -0.503137974   0.000000000
          4   0.000000000   0.000000000  -0.503137974
          5  -0.503137974   0.000000000   0.000000000
          6   0.000000000   0.503137974   0.000000000

     Diagonalizing the dynamical matrix

     q = (    0.503137974   0.000000000   0.000000000 ) 

 **************************************************************************
     omega( 1) =       0.974438 [THz] =      32.503763 [cm-1]
     omega( 2) =       0.974438 [THz] =      32.503763 [cm-1]
     omega( 3) =       2.411831 [THz] =      80.450039 [cm-1]
     omega( 4) =       3.112053 [THz] =     103.806903 [cm-1]
     omega( 5) =       3.112053 [THz] =     103.806903 [cm-1]
     omega( 6) =       6.318983 [THz] =     210.778580 [cm-1]
 **************************************************************************

     Mode symmetry, C_4v (4mm)  point group:

     omega(  1 -  2) =         32.5  [cm-1]   --> E    G_5 D_5       
     omega(  3 -  3) =         80.5  [cm-1]   --> A_1  G_1 D_1       
     omega(  4 -  5) =        103.8  [cm-1]   --> E    G_5 D_5       
     omega(  6 -  6) =        210.8  [cm-1]   --> A_1  G_1 D_1       

 **************************************************************************

     Calculation of q =   -0.2515690  -0.7547070   0.7547070
 
     Parallelization info
     --------------------
     sticks:   dense  smooth     PW     G-vecs:    dense   smooth      PW
     Min         213      70     25                 7158     1371     289
     Max         214      71     26                 7162     1385     292
     Sum        2563     847    301                85923    16529    3479
 


     bravais-lattice index     =            0
     lattice parameter (alat)  =      11.2185  a.u.
     unit-cell volume          =     346.4155 (a.u.)^3
     number of atoms/cell      =            2
     number of atomic types    =            2
     number of electrons       =        20.00
     number of Kohn-Sham states=           10
     kinetic-energy cutoff     =      50.0000  Ry
     charge density cutoff     =     600.0000  Ry
     Exchange-correlation      = PBESOL ( 1 410 8 0)
     EXX-fraction              =        0.00

     celldm(1)=  11.218536  celldm(2)=   0.000000  celldm(3)=   0.000000
     celldm(4)=   0.000000  celldm(5)=   0.000000  celldm(6)=   0.000000

     crystal axes: (cart. coord. in units of alat)
               a(1) = (   0.000000   0.496882   0.496882 )  
               a(2) = (   0.496882   0.000000   0.496882 )  
               a(3) = (   0.496882   0.496882   0.000000 )  

     reciprocal axes: (cart. coord. in units 2 pi/alat)
               b(1) = ( -1.006276  1.006276  1.006276 )  
               b(2) = (  1.006276 -1.006276  1.006276 )  
               b(3) = (  1.006276  1.006276 -1.006276 )  


     PseudoPot. # 1 for Pb read from file:
     /work/02599/asmiller/pseudo/gbrv/pbe_GBRV/pb_pbe_v1.uspp.F.UPF
     MD5 check sum: a5f44a0c8587cfbb5a05efeead6b9227
     Pseudo is Ultrasoft + core correction, Zval = 14.0
     Generated by new atomic code, or converted to UPF format
     Using radial grid of  899 points,  6 beta functions with: 
                l(1) =   0
                l(2) =   0
                l(3) =   1
                l(4) =   1
                l(5) =   2
                l(6) =   2
     Q(r) pseudized with  6 coefficients,  rinner =    1.000   1.000   1.000
                                                       1.000   1.000

     PseudoPot. # 2 for S  read from file:
     /work/02599/asmiller/pseudo/gbrv/pbe_GBRV/s_pbe_v1.2.uspp.F.UPF
     MD5 check sum: 18038e556f4a7980c01aa0ca135f6653
     Pseudo is Ultrasoft + core correction, Zval =  6.0
     Generated by new atomic code, or converted to UPF format
     Using radial grid of  907 points,  6 beta functions with: 
                l(1) =   0
                l(2) =   0
                l(3) =   1
                l(4) =   1
                l(5) =   2
                l(6) =   2
     Q(r) pseudized with  8 coefficients,  rinner =    1.300   1.300   1.300
                                                       1.300   1.300

     atomic species   valence    mass     pseudopotential
        Pb            14.00   207.20000     Pb( 1.00)
        S              6.00    32.06000     S ( 1.00)

     48 Sym. Ops., with inversion, found



   Cartesian axes

     site n.     atom                  positions (alat units)
         1           Pb  tau(   1) = (   0.0000000   0.0000000   0.0000000  )
         2           S   tau(   2) = (   0.4968816   0.4968816   0.4968816  )

     number of k points=  1872

     Number of k-points >= 100: set verbosity='high' to print them.

     Dense  grid:    85923 G-vectors     FFT dimensions: (  64,  64,  64)

     Smooth grid:    16529 G-vectors     FFT dimensions: (  36,  36,  36)

     Largest allocated arrays     est. size (Mb)     dimensions
        Kohn-Sham Wavefunctions         0.03 Mb     (    196,   10)
        NL pseudopotentials             0.11 Mb     (    196,   36)
        Each V/rho on FFT grid          0.38 Mb     (  24576)
        Each G-vector array             0.05 Mb     (   7162)
        G-vector shells                 0.00 Mb     (    624)
     Largest temporary arrays     est. size (Mb)     dimensions
        Auxiliary wavefunctions         0.12 Mb     (    196,   40)
        Each subspace H/S matrix        0.02 Mb     (  40,  40)
        Each <psi_i|beta_j> matrix      0.01 Mb     (     36,   10)

     The potential is recalculated from file :
     ./_ph0/PbS.save/charge-density.dat


     negative rho (up, down):  0.156E-01 0.000E+00
     Starting wfc are   13 atomic wfcs

     total cpu time spent up to now is      106.6 secs

     per-process dynamical memory:    67.7 Mb

     Band Structure Calculation
     Davidson diagonalization with overlap

     ethr =  5.00E-11,  avg # of iterations = 29.5

     total cpu time spent up to now is      222.4 secs

     End of band structure calculation

     Number of k-points >= 100: set verbosity='high' to print the bands.

     Writing output data file PbS.save

                                                                                

     bravais-lattice index     =            0
     lattice parameter (alat)  =      11.2185  a.u.
     unit-cell volume          =     346.4155 (a.u.)^3
     number of atoms/cell      =            2
     number of atomic types    =            2
     kinetic-energy cut-off    =      50.0000  Ry
     charge density cut-off    =     600.0000  Ry
     convergence threshold     =      1.0E-16
     beta                      =       0.7000
     number of iterations used =            4
     Exchange-correlation      = PBESOL ( 1 410 8 0)
     EXX-fraction              =        0.00


     celldm(1)=   11.21854  celldm(2)=    0.00000  celldm(3)=    0.00000
     celldm(4)=    0.00000  celldm(5)=    0.00000  celldm(6)=    0.00000

     crystal axes: (cart. coord. in units of alat)
               a(1) = (  0.0000  0.4969  0.4969 )  
               a(2) = (  0.4969  0.0000  0.4969 )  
               a(3) = (  0.4969  0.4969  0.0000 )  

     reciprocal axes: (cart. coord. in units 2 pi/alat)
               b(1) = ( -1.0063  1.0063  1.0063 )  
               b(2) = (  1.0063 -1.0063  1.0063 )  
               b(3) = (  1.0063  1.0063 -1.0063 )  


     Atoms inside the unit cell: 

   Cartesian axes

     site n.  atom      mass           positions (alat units)
        1        Pb 207.2000   tau( 1) = (    0.00000    0.00000    0.00000  )
        2        S   32.0600   tau( 2) = (    0.49688    0.49688    0.49688  )

     Computing dynamical matrix for 
                    q = (  -0.2515690  -0.7547070   0.7547070 )
 
      2 Sym.Ops. (no q -> -q+G )


     G cutoff = 1912.7750  (   7162 G-vectors)     FFT grid: ( 64, 64, 64)
     G cutoff =  637.5917  (   1385 G-vectors)  smooth grid: ( 36, 36, 36)
     number of k points=  1872

     PseudoPot. # 1 for Pb read from file:
     /work/02599/asmiller/pseudo/gbrv/pbe_GBRV/pb_pbe_v1.uspp.F.UPF
     MD5 check sum: a5f44a0c8587cfbb5a05efeead6b9227
     Pseudo is Ultrasoft + core correction, Zval = 14.0
     Generated by new atomic code, or converted to UPF format
     Using radial grid of  899 points,  6 beta functions with: 
                l(1) =   0
                l(2) =   0
                l(3) =   1
                l(4) =   1
                l(5) =   2
                l(6) =   2
     Q(r) pseudized with  6 coefficients,  rinner =    1.000   1.000   1.000
                                                       1.000   1.000

     PseudoPot. # 2 for S  read from file:
     /work/02599/asmiller/pseudo/gbrv/pbe_GBRV/s_pbe_v1.2.uspp.F.UPF
     MD5 check sum: 18038e556f4a7980c01aa0ca135f6653
     Pseudo is Ultrasoft + core correction, Zval =  6.0
     Generated by new atomic code, or converted to UPF format
     Using radial grid of  907 points,  6 beta functions with: 
                l(1) =   0
                l(2) =   0
                l(3) =   1
                l(4) =   1
                l(5) =   2
                l(6) =   2
     Q(r) pseudized with  8 coefficients,  rinner =    1.300   1.300   1.300
                                                       1.300   1.300


     Atomic displacements:
     There are   6 irreducible representations

     Representation     1      1 modes -A' To be done

     Representation     2      1 modes -A' To be done

     Representation     3      1 modes -A' To be done

     Representation     4      1 modes -A' To be done

     Representation     5      1 modes -A'' To be done

     Representation     6      1 modes -A'' To be done



     Alpha used in Ewald sum =   2.8000

     negative rho (up, down):  0.156E-01 0.000E+00
     PHONON       : 36m38.66s CPU    37m28.71s WALL



     Representation #  1 mode #   1

     Self-consistent Calculation

      iter #   1 total cpu time :  2268.4 secs   av.it.:   6.7
      thresh= 0.100E-01 alpha_mix =  0.700 |ddv_scf|^2 =  0.403E-05

      iter #   2 total cpu time :  2309.5 secs   av.it.:  16.8
      thresh= 0.201E-03 alpha_mix =  0.700 |ddv_scf|^2 =  0.123E-04

      iter #   3 total cpu time :  2346.3 secs   av.it.:  14.8
      thresh= 0.351E-03 alpha_mix =  0.700 |ddv_scf|^2 =  0.218E-06

      iter #   4 total cpu time :  2385.1 secs   av.it.:  15.7
      thresh= 0.466E-04 alpha_mix =  0.700 |ddv_scf|^2 =  0.832E-08

      iter #   5 total cpu time :  2425.1 secs   av.it.:  16.3
      thresh= 0.912E-05 alpha_mix =  0.700 |ddv_scf|^2 =  0.839E-09

      iter #   6 total cpu time :  2465.8 secs   av.it.:  16.6
      thresh= 0.290E-05 alpha_mix =  0.700 |ddv_scf|^2 =  0.357E-10

      iter #   7 total cpu time :  2507.3 secs   av.it.:  17.0
      thresh= 0.598E-06 alpha_mix =  0.700 |ddv_scf|^2 =  0.247E-11

      iter #   8 total cpu time :  2548.8 secs   av.it.:  17.0
      thresh= 0.157E-06 alpha_mix =  0.700 |ddv_scf|^2 =  0.104E-11

      iter #   9 total cpu time :  2588.1 secs   av.it.:  16.0
      thresh= 0.102E-06 alpha_mix =  0.700 |ddv_scf|^2 =  0.609E-12

      iter #  10 total cpu time :  2626.5 secs   av.it.:  15.6
      thresh= 0.781E-07 alpha_mix =  0.700 |ddv_scf|^2 =  0.463E-13

      iter #  11 total cpu time :  2665.6 secs   av.it.:  15.7
      thresh= 0.215E-07 alpha_mix =  0.700 |ddv_scf|^2 =  0.411E-14

      iter #  12 total cpu time :  2705.4 secs   av.it.:  16.2
      thresh= 0.641E-08 alpha_mix =  0.700 |ddv_scf|^2 =  0.296E-15

      iter #  13 total cpu time :  2746.5 secs   av.it.:  16.8
      thresh= 0.172E-08 alpha_mix =  0.700 |ddv_scf|^2 =  0.319E-16

     End of self-consistent calculation

     Convergence has been achieved 


     Representation #  2 mode #   2

     Self-consistent Calculation

      iter #   1 total cpu time :  2773.0 secs   av.it.:   9.5
      thresh= 0.100E-01 alpha_mix =  0.700 |ddv_scf|^2 =  0.509E-04

      iter #   2 total cpu time :  2813.5 secs   av.it.:  16.5
      thresh= 0.713E-03 alpha_mix =  0.700 |ddv_scf|^2 =  0.206E-03

      iter #   3 total cpu time :  2848.8 secs   av.it.:  14.1
      thresh= 0.143E-02 alpha_mix =  0.700 |ddv_scf|^2 =  0.937E-06

      iter #   4 total cpu time :  2888.9 secs   av.it.:  16.3
      thresh= 0.968E-04 alpha_mix =  0.700 |ddv_scf|^2 =  0.398E-07

      iter #   5 total cpu time :  2928.1 secs   av.it.:  15.9
      thresh= 0.200E-04 alpha_mix =  0.700 |ddv_scf|^2 =  0.304E-08

      iter #   6 total cpu time :  2968.2 secs   av.it.:  16.4
      thresh= 0.551E-05 alpha_mix =  0.700 |ddv_scf|^2 =  0.211E-09

      iter #   7 total cpu time :  3008.4 secs   av.it.:  16.4
      thresh= 0.145E-05 alpha_mix =  0.700 |ddv_scf|^2 =  0.285E-10

      iter #   8 total cpu time :  3049.0 secs   av.it.:  16.5
      thresh= 0.534E-06 alpha_mix =  0.700 |ddv_scf|^2 =  0.417E-11

      iter #   9 total cpu time :  3088.1 secs   av.it.:  15.9
      thresh= 0.204E-06 alpha_mix =  0.700 |ddv_scf|^2 =  0.361E-12

      iter #  10 total cpu time :  3127.5 secs   av.it.:  16.1
      thresh= 0.601E-07 alpha_mix =  0.700 |ddv_scf|^2 =  0.433E-13

      iter #  11 total cpu time :  3166.9 secs   av.it.:  16.0
      thresh= 0.208E-07 alpha_mix =  0.700 |ddv_scf|^2 =  0.415E-14

      iter #  12 total cpu time :  3206.8 secs   av.it.:  16.3
      thresh= 0.645E-08 alpha_mix =  0.700 |ddv_scf|^2 =  0.138E-14

      iter #  13 total cpu time :  3246.6 secs   av.it.:  16.2
      thresh= 0.371E-08 alpha_mix =  0.700 |ddv_scf|^2 =  0.258E-15

      iter #  14 total cpu time :  3285.9 secs   av.it.:  15.9
      thresh= 0.161E-08 alpha_mix =  0.700 |ddv_scf|^2 =  0.629E-16

     End of self-consistent calculation

     Convergence has been achieved 


     Representation #  3 mode #   3

     Self-consistent Calculation

      iter #   1 total cpu time :  3306.1 secs   av.it.:   6.7
      thresh= 0.100E-01 alpha_mix =  0.700 |ddv_scf|^2 =  0.610E-05

      iter #   2 total cpu time :  3346.8 secs   av.it.:  16.5
      thresh= 0.247E-03 alpha_mix =  0.700 |ddv_scf|^2 =  0.177E-04

      iter #   3 total cpu time :  3383.2 secs   av.it.:  14.6
      thresh= 0.421E-03 alpha_mix =  0.700 |ddv_scf|^2 =  0.305E-06

      iter #   4 total cpu time :  3421.5 secs   av.it.:  15.5
      thresh= 0.553E-04 alpha_mix =  0.700 |ddv_scf|^2 =  0.679E-08

      iter #   5 total cpu time :  3461.8 secs   av.it.:  16.5
      thresh= 0.824E-05 alpha_mix =  0.700 |ddv_scf|^2 =  0.637E-09

      iter #   6 total cpu time :  3502.7 secs   av.it.:  16.7
      thresh= 0.252E-05 alpha_mix =  0.700 |ddv_scf|^2 =  0.303E-10

      iter #   7 total cpu time :  3544.5 secs   av.it.:  17.1
      thresh= 0.550E-06 alpha_mix =  0.700 |ddv_scf|^2 =  0.229E-11

      iter #   8 total cpu time :  3586.1 secs   av.it.:  17.0
      thresh= 0.151E-06 alpha_mix =  0.700 |ddv_scf|^2 =  0.459E-12

      iter #   9 total cpu time :  3626.1 secs   av.it.:  16.3
      thresh= 0.677E-07 alpha_mix =  0.700 |ddv_scf|^2 =  0.343E-12

      iter #  10 total cpu time :  3664.5 secs   av.it.:  15.6
      thresh= 0.585E-07 alpha_mix =  0.700 |ddv_scf|^2 =  0.237E-13

      iter #  11 total cpu time :  3702.7 secs   av.it.:  15.5
      thresh= 0.154E-07 alpha_mix =  0.700 |ddv_scf|^2 =  0.923E-15

      iter #  12 total cpu time :  3743.1 secs   av.it.:  16.5
      thresh= 0.304E-08 alpha_mix =  0.700 |ddv_scf|^2 =  0.121E-15

      iter #  13 total cpu time :  3784.3 secs   av.it.:  16.8
      thresh= 0.110E-08 alpha_mix =  0.700 |ddv_scf|^2 =  0.116E-16

     End of self-consistent calculation

     Convergence has been achieved 


     Representation #  4 mode #   4

     Self-consistent Calculation

      iter #   1 total cpu time :  3810.9 secs   av.it.:   9.5
      thresh= 0.100E-01 alpha_mix =  0.700 |ddv_scf|^2 =  0.192E-04

      iter #   2 total cpu time :  3852.6 secs   av.it.:  17.1
      thresh= 0.438E-03 alpha_mix =  0.700 |ddv_scf|^2 =  0.519E-04

      iter #   3 total cpu time :  3890.3 secs   av.it.:  15.2
      thresh= 0.721E-03 alpha_mix =  0.700 |ddv_scf|^2 =  0.177E-05

      iter #   4 total cpu time :  3928.9 secs   av.it.:  15.6
      thresh= 0.133E-03 alpha_mix =  0.700 |ddv_scf|^2 =  0.536E-07

      iter #   5 total cpu time :  3967.1 secs   av.it.:  15.5
      thresh= 0.232E-04 alpha_mix =  0.700 |ddv_scf|^2 =  0.178E-08

      iter #   6 total cpu time :  4008.1 secs   av.it.:  16.8
      thresh= 0.422E-05 alpha_mix =  0.700 |ddv_scf|^2 =  0.156E-09

      iter #   7 total cpu time :  4048.9 secs   av.it.:  16.6
      thresh= 0.125E-05 alpha_mix =  0.700 |ddv_scf|^2 =  0.237E-10

      iter #   8 total cpu time :  4089.9 secs   av.it.:  16.8
      thresh= 0.487E-06 alpha_mix =  0.700 |ddv_scf|^2 =  0.222E-11

      iter #   9 total cpu time :  4130.1 secs   av.it.:  16.4
      thresh= 0.149E-06 alpha_mix =  0.700 |ddv_scf|^2 =  0.357E-12

      iter #  10 total cpu time :  4169.2 secs   av.it.:  15.8
      thresh= 0.598E-07 alpha_mix =  0.700 |ddv_scf|^2 =  0.842E-13

      iter #  11 total cpu time :  4207.3 secs   av.it.:  15.4
      thresh= 0.290E-07 alpha_mix =  0.700 |ddv_scf|^2 =  0.578E-14

      iter #  12 total cpu time :  4247.6 secs   av.it.:  16.4
      thresh= 0.761E-08 alpha_mix =  0.700 |ddv_scf|^2 =  0.804E-15

      iter #  13 total cpu time :  4288.2 secs   av.it.:  16.6
      thresh= 0.284E-08 alpha_mix =  0.700 |ddv_scf|^2 =  0.291E-15

      iter #  14 total cpu time :  4327.4 secs   av.it.:  16.0
      thresh= 0.171E-08 alpha_mix =  0.700 |ddv_scf|^2 =  0.541E-16

     End of self-consistent calculation

     Convergence has been achieved 


     Representation #  5 mode #   5

     Self-consistent Calculation

      iter #   1 total cpu time :  4352.1 secs   av.it.:   8.7
      thresh= 0.100E-01 alpha_mix =  0.700 |ddv_scf|^2 =  0.574E-05

      iter #   2 total cpu time :  4392.6 secs   av.it.:  16.1
      thresh= 0.240E-03 alpha_mix =  0.700 |ddv_scf|^2 =  0.272E-05

      iter #   3 total cpu time :  4431.4 secs   av.it.:  15.4
      thresh= 0.165E-03 alpha_mix =  0.700 |ddv_scf|^2 =  0.352E-08

      iter #   4 total cpu time :  4472.4 secs   av.it.:  16.4
      thresh= 0.593E-05 alpha_mix =  0.700 |ddv_scf|^2 =  0.178E-09

      iter #   5 total cpu time :  4513.8 secs   av.it.:  16.5
      thresh= 0.133E-05 alpha_mix =  0.700 |ddv_scf|^2 =  0.677E-11

      iter #   6 total cpu time :  4553.0 secs   av.it.:  15.6
      thresh= 0.260E-06 alpha_mix =  0.700 |ddv_scf|^2 =  0.235E-13

      iter #   7 total cpu time :  4593.1 secs   av.it.:  16.0
      thresh= 0.153E-07 alpha_mix =  0.700 |ddv_scf|^2 =  0.128E-14

      iter #   8 total cpu time :  4632.8 secs   av.it.:  15.9
      thresh= 0.358E-08 alpha_mix =  0.700 |ddv_scf|^2 =  0.147E-16

     End of self-consistent calculation

     Convergence has been achieved 


     Representation #  6 mode #   6

     Self-consistent Calculation

      iter #   1 total cpu time :  4651.5 secs   av.it.:   6.0
      thresh= 0.100E-01 alpha_mix =  0.700 |ddv_scf|^2 =  0.577E-06

      iter #   2 total cpu time :  4691.9 secs   av.it.:  16.0
      thresh= 0.760E-04 alpha_mix =  0.700 |ddv_scf|^2 =  0.197E-06

      iter #   3 total cpu time :  4731.0 secs   av.it.:  15.6
      thresh= 0.444E-04 alpha_mix =  0.700 |ddv_scf|^2 =  0.212E-08

      iter #   4 total cpu time :  4771.2 secs   av.it.:  16.0
      thresh= 0.460E-05 alpha_mix =  0.700 |ddv_scf|^2 =  0.142E-09

      iter #   5 total cpu time :  4811.3 secs   av.it.:  16.0
      thresh= 0.119E-05 alpha_mix =  0.700 |ddv_scf|^2 =  0.104E-11

      iter #   6 total cpu time :  4849.8 secs   av.it.:  15.3
      thresh= 0.102E-06 alpha_mix =  0.700 |ddv_scf|^2 =  0.391E-14

      iter #   7 total cpu time :  4890.8 secs   av.it.:  16.4
      thresh= 0.626E-08 alpha_mix =  0.700 |ddv_scf|^2 =  0.928E-16

     End of self-consistent calculation

     Convergence has been achieved 
 
     Number of q in the star =   24
     List of q in the star:
          1  -0.251568987  -0.754706961   0.754706961
          2  -0.251568987  -0.754706961  -0.754706961
          3  -0.251568987   0.754706961   0.754706961
          4  -0.251568987   0.754706961  -0.754706961
          5   0.754706961   0.754706961  -0.251568987
          6   0.754706961   0.251568987  -0.754706961
          7  -0.754706961  -0.754706961   0.251568987
          8  -0.754706961   0.754706961   0.251568987
          9   0.251568987  -0.754706961  -0.754706961
         10   0.251568987   0.754706961   0.754706961
         11  -0.754706961   0.754706961  -0.251568987
         12   0.754706961   0.754706961   0.251568987
         13   0.754706961  -0.754706961  -0.251568987
         14   0.754706961  -0.251568987  -0.754706961
         15   0.754706961   0.251568987   0.754706961
         16  -0.754706961   0.251568987  -0.754706961
         17  -0.754706961   0.251568987   0.754706961
         18  -0.754706961  -0.251568987   0.754706961
         19   0.754706961  -0.251568987   0.754706961
         20   0.251568987  -0.754706961   0.754706961
         21  -0.754706961  -0.251568987  -0.754706961
         22   0.251568987   0.754706961  -0.754706961
         23   0.754706961  -0.754706961   0.251568987
         24  -0.754706961  -0.754706961  -0.251568987

     Diagonalizing the dynamical matrix

     q = (   -0.251568987  -0.754706961   0.754706961 ) 

 **************************************************************************
     omega( 1) =       1.420957 [THz] =      47.398021 [cm-1]
     omega( 2) =       1.576517 [THz] =      52.586952 [cm-1]
     omega( 3) =       2.460438 [THz] =      82.071363 [cm-1]
     omega( 4) =       4.831792 [THz] =     161.171236 [cm-1]
     omega( 5) =       4.850736 [THz] =     161.803138 [cm-1]
     omega( 6) =       6.003383 [THz] =     200.251315 [cm-1]
 **************************************************************************

     Mode symmetry, C_s (m)     point group:

     omega(  1 -  1) =         47.4  [cm-1]   --> A''                
     omega(  2 -  2) =         52.6  [cm-1]   --> A'                 
     omega(  3 -  3) =         82.1  [cm-1]   --> A'                 
     omega(  4 -  4) =        161.2  [cm-1]   --> A'                 
     omega(  5 -  5) =        161.8  [cm-1]   --> A''                
     omega(  6 -  6) =        200.3  [cm-1]   --> A'                 

 **************************************************************************

     Calculation of q =    0.0000000  -0.5031380   0.5031380
 
     Parallelization info
     --------------------
     sticks:   dense  smooth     PW     G-vecs:    dense   smooth      PW
     Min         213      70     24                 7158     1368     273
     Max         214      71     25                 7162     1391     275
     Sum        2563     847    295                85923    16529    3287
 


     bravais-lattice index     =            0
     lattice parameter (alat)  =      11.2185  a.u.
     unit-cell volume          =     346.4155 (a.u.)^3
     number of atoms/cell      =            2
     number of atomic types    =            2
     number of electrons       =        20.00
     number of Kohn-Sham states=           10
     kinetic-energy cutoff     =      50.0000  Ry
     charge density cutoff     =     600.0000  Ry
     Exchange-correlation      = PBESOL ( 1 410 8 0)
     EXX-fraction              =        0.00

     celldm(1)=  11.218536  celldm(2)=   0.000000  celldm(3)=   0.000000
[...]
     Min         213      70     25                 7158     1370     281
     Max         214      71     26                 7162     1383     283
     Sum        2563     847    301                85923    16529    3383
 


     bravais-lattice index     =            0
     lattice parameter (alat)  =      11.2185  a.u.
     unit-cell volume          =     346.4155 (a.u.)^3
     number of atoms/cell      =            2
     number of atomic types    =            2
     number of electrons       =        20.00
     number of Kohn-Sham states=           10
     kinetic-energy cutoff     =      50.0000  Ry
     charge density cutoff     =     600.0000  Ry
     Exchange-correlation      = PBESOL ( 1 410 8 0)
     EXX-fraction              =        0.00

     celldm(1)=  11.218536  celldm(2)=   0.000000  celldm(3)=   0.000000
     celldm(4)=   0.000000  celldm(5)=   0.000000  celldm(6)=   0.000000

     crystal axes: (cart. coord. in units of alat)
               a(1) = (   0.000000   0.496882   0.496882 )  
               a(2) = (   0.496882   0.000000   0.496882 )  
               a(3) = (   0.496882   0.496882   0.000000 )  

     reciprocal axes: (cart. coord. in units 2 pi/alat)
               b(1) = ( -1.006276  1.006276  1.006276 )  
               b(2) = (  1.006276 -1.006276  1.006276 )  
               b(3) = (  1.006276  1.006276 -1.006276 )  


     PseudoPot. # 1 for Pb read from file:
     /work/02599/asmiller/pseudo/gbrv/pbe_GBRV/pb_pbe_v1.uspp.F.UPF
     MD5 check sum: a5f44a0c8587cfbb5a05efeead6b9227
     Pseudo is Ultrasoft + core correction, Zval = 14.0
     Generated by new atomic code, or converted to UPF format
     Using radial grid of  899 points,  6 beta functions with: 
                l(1) =   0
                l(2) =   0
                l(3) =   1
                l(4) =   1
                l(5) =   2
                l(6) =   2
     Q(r) pseudized with  6 coefficients,  rinner =    1.000   1.000   1.000
                                                       1.000   1.000

     PseudoPot. # 2 for S  read from file:
     /work/02599/asmiller/pseudo/gbrv/pbe_GBRV/s_pbe_v1.2.uspp.F.UPF
     MD5 check sum: 18038e556f4a7980c01aa0ca135f6653
     Pseudo is Ultrasoft + core correction, Zval =  6.0
     Generated by new atomic code, or converted to UPF format
     Using radial grid of  907 points,  6 beta functions with: 
                l(1) =   0
                l(2) =   0
                l(3) =   1
                l(4) =   1
                l(5) =   2
                l(6) =   2
     Q(r) pseudized with  8 coefficients,  rinner =    1.300   1.300   1.300
                                                       1.300   1.300

     atomic species   valence    mass     pseudopotential
        Pb            14.00   207.20000     Pb( 1.00)
        S              6.00    32.06000     S ( 1.00)

     48 Sym. Ops., with inversion, found



   Cartesian axes

     site n.     atom                  positions (alat units)
         1           Pb  tau(   1) = (   0.0000000   0.0000000   0.0000000  )
         2           S   tau(   2) = (   0.4968816   0.4968816   0.4968816  )

     number of k points=   524

     Number of k-points >= 100: set verbosity='high' to print them.

     Dense  grid:    85923 G-vectors     FFT dimensions: (  64,  64,  64)

     Smooth grid:    16529 G-vectors     FFT dimensions: (  36,  36,  36)

     Largest allocated arrays     est. size (Mb)     dimensions
        Kohn-Sham Wavefunctions         0.03 Mb     (    192,   10)
        NL pseudopotentials             0.11 Mb     (    192,   36)
        Each V/rho on FFT grid          0.38 Mb     (  24576)
        Each G-vector array             0.05 Mb     (   7162)
        G-vector shells                 0.00 Mb     (    619)
     Largest temporary arrays     est. size (Mb)     dimensions
        Auxiliary wavefunctions         0.12 Mb     (    192,   40)
        Each subspace H/S matrix        0.02 Mb     (  40,  40)
        Each <psi_i|beta_j> matrix      0.01 Mb     (     36,   10)

     The potential is recalculated from file :
     ./_ph0/PbS.save/charge-density.dat


     negative rho (up, down):  0.156E-01 0.000E+00
     Starting wfc are   13 atomic wfcs

     total cpu time spent up to now is      308.7 secs

     per-process dynamical memory:    78.8 Mb

     Band Structure Calculation
     Davidson diagonalization with overlap

     ethr =  5.00E-11,  avg # of iterations = 28.7

     total cpu time spent up to now is      339.7 secs

     End of band structure calculation

     Number of k-points >= 100: set verbosity='high' to print the bands.

     Writing output data file PbS.save

                                                                                

     bravais-lattice index     =            0
     lattice parameter (alat)  =      11.2185  a.u.
     unit-cell volume          =     346.4155 (a.u.)^3
     number of atoms/cell      =            2
     number of atomic types    =            2
     kinetic-energy cut-off    =      50.0000  Ry
     charge density cut-off    =     600.0000  Ry
     convergence threshold     =      1.0E-16
     beta                      =       0.7000
     number of iterations used =            4
     Exchange-correlation      = PBESOL ( 1 410 8 0)
     EXX-fraction              =        0.00


     celldm(1)=   11.21854  celldm(2)=    0.00000  celldm(3)=    0.00000
     celldm(4)=    0.00000  celldm(5)=    0.00000  celldm(6)=    0.00000

     crystal axes: (cart. coord. in units of alat)
               a(1) = (  0.0000  0.4969  0.4969 )  
               a(2) = (  0.4969  0.0000  0.4969 )  
               a(3) = (  0.4969  0.4969  0.0000 )  

     reciprocal axes: (cart. coord. in units 2 pi/alat)
               b(1) = ( -1.0063  1.0063  1.0063 )  
               b(2) = (  1.0063 -1.0063  1.0063 )  
               b(3) = (  1.0063  1.0063 -1.0063 )  


     Atoms inside the unit cell: 

   Cartesian axes

     site n.  atom      mass           positions (alat units)
        1        Pb 207.2000   tau( 1) = (    0.00000    0.00000    0.00000  )
        2        S   32.0600   tau( 2) = (    0.49688    0.49688    0.49688  )

     Computing dynamical matrix for 
                    q = (  -1.0062759   0.5031380   0.0000000 )
 
      8 Sym.Ops. (no q -> -q+G )


     G cutoff = 1912.7750  (   7162 G-vectors)     FFT grid: ( 64, 64, 64)
     G cutoff =  637.5917  (   1370 G-vectors)  smooth grid: ( 36, 36, 36)
     number of k points=   524

     PseudoPot. # 1 for Pb read from file:
     /work/02599/asmiller/pseudo/gbrv/pbe_GBRV/pb_pbe_v1.uspp.F.UPF
     MD5 check sum: a5f44a0c8587cfbb5a05efeead6b9227
     Pseudo is Ultrasoft + core correction, Zval = 14.0
     Generated by new atomic code, or converted to UPF format
     Using radial grid of  899 points,  6 beta functions with: 
                l(1) =   0
                l(2) =   0
                l(3) =   1
                l(4) =   1
                l(5) =   2
                l(6) =   2
     Q(r) pseudized with  6 coefficients,  rinner =    1.000   1.000   1.000
                                                       1.000   1.000

     PseudoPot. # 2 for S  read from file:
     /work/02599/asmiller/pseudo/gbrv/pbe_GBRV/s_pbe_v1.2.uspp.F.UPF
     MD5 check sum: 18038e556f4a7980c01aa0ca135f6653
     Pseudo is Ultrasoft + core correction, Zval =  6.0
     Generated by new atomic code, or converted to UPF format
     Using radial grid of  907 points,  6 beta functions with: 
                l(1) =   0
                l(2) =   0
                l(3) =   1
                l(4) =   1
                l(5) =   2
                l(6) =   2
     Q(r) pseudized with  8 coefficients,  rinner =    1.300   1.300   1.300
                                                       1.300   1.300


     Atomic displacements:
     There are   4 irreducible representations

     Representation     1      1 modes -A_1  X_1  W_1 To be done

     Representation     2      1 modes -B_2  X_3  W_2 To be done

     Representation     3      2 modes -E    X_5  W_3 To be done

     Representation     4      2 modes -E    X_5  W_3 To be done



     Alpha used in Ewald sum =   2.8000

     negative rho (up, down):  0.156E-01 0.000E+00
     PHONON       :     1h44m CPU        1h46m WALL



     Representation #  1 mode #   1

     Self-consistent Calculation

      iter #   1 total cpu time :  6393.5 secs   av.it.:   4.9
      thresh= 0.100E-01 alpha_mix =  0.700 |ddv_scf|^2 =  0.132E-05

      iter #   2 total cpu time :  6404.0 secs   av.it.:  14.8
      thresh= 0.115E-03 alpha_mix =  0.700 |ddv_scf|^2 =  0.918E-06

      iter #   3 total cpu time :  6414.2 secs   av.it.:  14.2
      thresh= 0.958E-04 alpha_mix =  0.700 |ddv_scf|^2 =  0.154E-08

      iter #   4 total cpu time :  6425.6 secs   av.it.:  16.1
      thresh= 0.392E-05 alpha_mix =  0.700 |ddv_scf|^2 =  0.161E-09

      iter #   5 total cpu time :  6436.7 secs   av.it.:  15.7
      thresh= 0.127E-05 alpha_mix =  0.700 |ddv_scf|^2 =  0.633E-12

      iter #   6 total cpu time :  6447.7 secs   av.it.:  15.7
      thresh= 0.796E-07 alpha_mix =  0.700 |ddv_scf|^2 =  0.105E-13

      iter #   7 total cpu time :  6458.8 secs   av.it.:  15.8
      thresh= 0.102E-07 alpha_mix =  0.700 |ddv_scf|^2 =  0.871E-16

     End of self-consistent calculation

     Convergence has been achieved 


     Representation #  2 mode #   2

     Self-consistent Calculation

      iter #   1 total cpu time :  6466.0 secs   av.it.:   8.5
      thresh= 0.100E-01 alpha_mix =  0.700 |ddv_scf|^2 =  0.115E-04

      iter #   2 total cpu time :  6477.1 secs   av.it.:  15.8
      thresh= 0.339E-03 alpha_mix =  0.700 |ddv_scf|^2 =  0.193E-04

      iter #   3 total cpu time :  6487.3 secs   av.it.:  14.2
      thresh= 0.440E-03 alpha_mix =  0.700 |ddv_scf|^2 =  0.399E-06

      iter #   4 total cpu time :  6497.7 secs   av.it.:  14.1
      thresh= 0.631E-04 alpha_mix =  0.700 |ddv_scf|^2 =  0.147E-08

      iter #   5 total cpu time :  6508.8 secs   av.it.:  15.6
      thresh= 0.384E-05 alpha_mix =  0.700 |ddv_scf|^2 =  0.419E-10

      iter #   6 total cpu time :  6519.3 secs   av.it.:  14.7
      thresh= 0.647E-06 alpha_mix =  0.700 |ddv_scf|^2 =  0.213E-12

      iter #   7 total cpu time :  6530.3 secs   av.it.:  15.6
      thresh= 0.461E-07 alpha_mix =  0.700 |ddv_scf|^2 =  0.737E-14

      iter #   8 total cpu time :  6541.1 secs   av.it.:  15.1
      thresh= 0.859E-08 alpha_mix =  0.700 |ddv_scf|^2 =  0.760E-16

     End of self-consistent calculation

     Convergence has been achieved 


     Representation #  3 modes #   3  4

     Self-consistent Calculation

      iter #   1 total cpu time :  6555.7 secs   av.it.:   9.0
      thresh= 0.100E-01 alpha_mix =  0.700 |ddv_scf|^2 =  0.449E-05

      iter #   2 total cpu time :  6579.8 secs   av.it.:  17.5
      thresh= 0.212E-03 alpha_mix =  0.700 |ddv_scf|^2 =  0.575E-05

      iter #   3 total cpu time :  6602.6 secs   av.it.:  16.3
      thresh= 0.240E-03 alpha_mix =  0.700 |ddv_scf|^2 =  0.163E-08

      iter #   4 total cpu time :  6627.3 secs   av.it.:  17.7
      thresh= 0.404E-05 alpha_mix =  0.700 |ddv_scf|^2 =  0.663E-10

      iter #   5 total cpu time :  6651.6 secs   av.it.:  17.6
      thresh= 0.814E-06 alpha_mix =  0.700 |ddv_scf|^2 =  0.288E-11

      iter #   6 total cpu time :  6674.1 secs   av.it.:  16.2
      thresh= 0.170E-06 alpha_mix =  0.700 |ddv_scf|^2 =  0.235E-13

      iter #   7 total cpu time :  6698.0 secs   av.it.:  17.3
      thresh= 0.153E-07 alpha_mix =  0.700 |ddv_scf|^2 =  0.469E-15

      iter #   8 total cpu time :  6721.5 secs   av.it.:  16.9
      thresh= 0.216E-08 alpha_mix =  0.700 |ddv_scf|^2 =  0.335E-17

     End of self-consistent calculation

     Convergence has been achieved 


     Representation #  4 modes #   5  6

     Self-consistent Calculation

      iter #   1 total cpu time :  6733.1 secs   av.it.:   6.7
      thresh= 0.100E-01 alpha_mix =  0.700 |ddv_scf|^2 =  0.592E-06

      iter #   2 total cpu time :  6757.1 secs   av.it.:  17.3
      thresh= 0.769E-04 alpha_mix =  0.700 |ddv_scf|^2 =  0.661E-06

      iter #   3 total cpu time :  6779.9 secs   av.it.:  16.4
      thresh= 0.813E-04 alpha_mix =  0.700 |ddv_scf|^2 =  0.819E-09

      iter #   4 total cpu time :  6803.7 secs   av.it.:  17.2
      thresh= 0.286E-05 alpha_mix =  0.700 |ddv_scf|^2 =  0.406E-10

      iter #   5 total cpu time :  6827.2 secs   av.it.:  17.0
      thresh= 0.637E-06 alpha_mix =  0.700 |ddv_scf|^2 =  0.841E-12

      iter #   6 total cpu time :  6849.2 secs   av.it.:  15.6
      thresh= 0.917E-07 alpha_mix =  0.700 |ddv_scf|^2 =  0.292E-14

      iter #   7 total cpu time :  6872.9 secs   av.it.:  17.1
      thresh= 0.540E-08 alpha_mix =  0.700 |ddv_scf|^2 =  0.384E-16

     End of self-consistent calculation

     Convergence has been achieved 
 
     Number of q in the star =    6
     List of q in the star:
          1  -1.006275948   0.503137974   0.000000000
          2   1.006275948   0.000000000   0.503137974
          3   1.006275948   0.000000000  -0.503137974
          4   1.006275948  -0.503137974   0.000000000
          5   0.503137974   0.000000000  -1.006275948
          6  -0.503137974   0.000000000   1.006275948

     Diagonalizing the dynamical matrix

     q = (   -1.006275948   0.503137974   0.000000000 ) 

 **************************************************************************
     omega( 1) =       1.619258 [THz] =      54.012638 [cm-1]
     omega( 2) =       1.619258 [THz] =      54.012638 [cm-1]
     omega( 3) =       2.155692 [THz] =      71.906138 [cm-1]
     omega( 4) =       3.457084 [THz] =     115.315913 [cm-1]
     omega( 5) =       3.457084 [THz] =     115.315913 [cm-1]
     omega( 6) =       6.044315 [THz] =     201.616635 [cm-1]
 **************************************************************************

     Mode symmetry, D_2d (-42m) point group:

     omega(  1 -  2) =         54.0  [cm-1]   --> E    X_5  W_3      
     omega(  3 -  3) =         71.9  [cm-1]   --> B_2  X_3  W_2      
     omega(  4 -  5) =        115.3  [cm-1]   --> E    X_5  W_3      
     omega(  6 -  6) =        201.6  [cm-1]   --> A_1  X_1  W_1      

 **************************************************************************
 
     init_run     :      3.41s CPU      3.85s WALL (       7 calls)
     electrons    :    304.68s CPU    328.08s WALL (       7 calls)

     Called by init_run:
     wfcinit      :      0.00s CPU      0.00s WALL (       7 calls)
     potinit      :      0.67s CPU      0.73s WALL (       7 calls)

     Called by electrons:
     c_bands      :    304.66s CPU    328.06s WALL (       7 calls)
     v_of_rho     :      0.20s CPU      0.21s WALL (       8 calls)
     newd         :      0.44s CPU      0.44s WALL (       8 calls)

     Called by c_bands:
     init_us_2    :      7.96s CPU      8.08s WALL (   84702 calls)
     cegterg      :    263.10s CPU    265.27s WALL (    5051 calls)

     Called by *egterg:
     h_psi        :    213.39s CPU    215.83s WALL (   84773 calls)
     s_psi        :    330.17s CPU    335.52s WALL ( 3447562 calls)
     g_psi        :      1.87s CPU      1.86s WALL (   77002 calls)
     cdiaghg      :     28.99s CPU     29.47s WALL (   79722 calls)

     Called by h_psi:
     add_vuspsi   :    174.13s CPU    173.88s WALL ( 1725973 calls)

     General routines
     calbec       :    542.73s CPU    533.56s WALL ( 3599599 calls)
     fft          :     12.22s CPU     13.06s WALL (    8123 calls)
     ffts         :      2.11s CPU      2.46s WALL (    9774 calls)
     fftw         :   3913.78s CPU   3955.26s WALL (29064548 calls)
     interpolate  :      0.02s CPU      0.03s WALL (      15 calls)
     davcio       :      2.24s CPU     20.95s WALL (  397426 calls)
 
     Parallel routines
     fft_scatter  :   2077.91s CPU   2086.96s WALL (29082445 calls)
 
     PHONON       :     1h52m CPU        1h54m WALL

     INITIALIZATION: 
     phq_setup    :      0.46s CPU      0.60s WALL (       8 calls)
     phq_init     :     41.49s CPU     42.17s WALL (       8 calls)
 
     phq_init     :     41.49s CPU     42.17s WALL (       8 calls)
     set_drhoc    :      6.07s CPU      6.06s WALL (      24 calls)
     init_vloc    :      0.06s CPU      0.07s WALL (       8 calls)
     init_us_1    :      1.55s CPU      1.57s WALL (       8 calls)
     newd         :      0.44s CPU      0.44s WALL (       8 calls)
     dvanqq       :      5.61s CPU      5.60s WALL (       8 calls)
     drho         :     23.62s CPU     23.96s WALL (       8 calls)
 
     DYNAMICAL MATRIX:
     dynmat0      :      7.49s CPU      7.72s WALL (       8 calls)
     phqscf       :   6306.41s CPU   6397.37s WALL (       8 calls)
     dynmatrix    :      0.11s CPU      0.15s WALL (       8 calls)
 
     phqscf       :   6306.41s CPU   6397.37s WALL (       8 calls)
     solve_linter :   6296.75s CPU   6386.31s WALL (      34 calls)
     drhodv       :      7.70s CPU      8.01s WALL (      34 calls)
 
     dynmat0      :      7.49s CPU      7.72s WALL (       8 calls)
     dynmat_us    :      3.24s CPU      3.30s WALL (       8 calls)
     d2ionq       :      0.01s CPU      0.02s WALL (       8 calls)
     dynmatcc     :      4.16s CPU      4.15s WALL (       8 calls)
 
     dynmat_us    :      3.24s CPU      3.30s WALL (       8 calls)
     addusdynmat  :      0.00s CPU      0.00s WALL (       8 calls)
 
     phqscf       :   6306.41s CPU   6397.37s WALL (       8 calls)
     solve_linter :   6296.75s CPU   6386.31s WALL (      34 calls)
 
     solve_linter :   6296.75s CPU   6386.31s WALL (      34 calls)
     dvqpsi_us    :     32.38s CPU     32.83s WALL (    8592 calls)
     ortho        :     35.18s CPU     34.85s WALL (   80281 calls)
     cgsolve      :   5605.73s CPU   5663.25s WALL (   80281 calls)
     incdrhoscf   :    253.59s CPU    256.48s WALL (   80281 calls)
     addusddens   :     26.95s CPU     27.08s WALL (     342 calls)
     vpsifft      :    188.80s CPU    191.41s WALL (   71041 calls)
     dv_of_drho   :     11.89s CPU     12.45s WALL (     435 calls)
     mix_pot      :      2.66s CPU      7.67s WALL (     315 calls)
     psymdvscf    :     42.36s CPU     43.92s WALL (     308 calls)
     newdq        :     29.48s CPU     29.59s WALL (     315 calls)
     adddvscf     :     13.20s CPU     13.13s WALL (   71689 calls)
     drhodvus     :      0.05s CPU      0.10s WALL (      34 calls)
 
     dvqpsi_us    :     32.38s CPU     32.83s WALL (    8592 calls)
     dvqpsi_us_on :      7.70s CPU      7.63s WALL (    8592 calls)
 
     cgsolve      :   5605.73s CPU   5663.25s WALL (   80281 calls)
     ch_psi       :   5456.39s CPU   5516.31s WALL ( 1641200 calls)
 
     ch_psi       :   5456.39s CPU   5516.31s WALL ( 1641200 calls)
     h_psiq       :   4882.76s CPU   4935.85s WALL ( 1641200 calls)
     last         :    562.73s CPU    567.04s WALL ( 1641200 calls)
 
     h_psiq       :   4882.76s CPU   4935.85s WALL ( 1641200 calls)
     firstfft     :   2644.37s CPU   2673.81s WALL (12348932 calls)
     secondfft    :   1566.54s CPU   1585.32s WALL (12348932 calls)
     add_vuspsi   :    174.13s CPU    173.88s WALL ( 1725973 calls)
 
     incdrhoscf   :    253.59s CPU    256.48s WALL (   80281 calls)
     addusdbec    :     17.91s CPU     18.02s WALL (   88657 calls)
 
     drhodvus     :      0.05s CPU      0.10s WALL (      34 calls)
 
      General routines
     calbec       :    542.73s CPU    533.56s WALL ( 3599599 calls)
     fft          :     12.22s CPU     13.06s WALL (    8123 calls)
     ffts         :      2.11s CPU      2.46s WALL (    9774 calls)
     fftw         :   3913.78s CPU   3955.26s WALL (29064548 calls)
     cinterpolate :      1.88s CPU      1.96s WALL (     915 calls)
     davcio       :      2.24s CPU     20.95s WALL (  397426 calls)
     write_rec    :      1.08s CPU      5.49s WALL (     349 calls)
 
TACC: Shutting down parallel environment.
TACC: Shutdown complete. Exiting.
