TACC: Starting up job 2117630
TACC: Setting up parallel environment for MVAPICH ssh-based mpirun.
TACC: Setup complete. Running job script.
TACC: starting parallel tasks...

     Program PWSCF v.5.0.1 starts on 17Aug2014 at 23:26:22 

     This program is part of the open-source Quantum ESPRESSO suite
     for quantum simulation of materials; please cite
         "P. Giannozzi et al., J. Phys.:Condens. Matter 21 395502 (2009);
          URL http://www.quantum-espresso.org", 
     in publications or presentations arising from this work. More details at
     http://www.quantum-espresso.org/quote.php

     Parallel version (MPI), running on    24 processors
     K-points division:     npool     =    2
     R & G space division:  proc/pool =   12

     Current dimensions of program PWSCF are:
     Max number of different atomic species (ntypx) = 10
     Max number of k-points (npk) =  40000
     Max angular momentum in pseudopotentials (lmaxx) =  3
     Waiting for input...
     Reading input from standard input
Warning: card &IONS ignored
Warning: card ION_DYNAMICS='BFGS', ignored
Warning: card / ignored
Warning: card &CELL ignored
Warning: card CELL_DYNAMICS='BFGS', ignored
Warning: card PRESS=0.D0 ignored
Warning: card / ignored

     IMPORTANT: XC functional enforced from input :
     Exchange-correlation      = PBESOL ( 1 410 8 0)
     EXX-fraction              =        0.00
     Any further DFT definition will be discarded
     Please, verify this is what you really want


     Subspace diagonalization in iterative solution of the eigenvalue problem:
     a serial algorithm will be used

 
     Parallelization info
     --------------------
     sticks:   dense  smooth     PW     G-vecs:    dense   smooth      PW
     Min         213      70     21                 7158     1369     223
     Max         214      71     22                 7162     1382     226
     Sum        2563     847    253                85923    16529    2685
 


     bravais-lattice index     =            0
     lattice parameter (alat)  =      11.2163  a.u.
     unit-cell volume          =     346.2077 (a.u.)^3
     number of atoms/cell      =            2
     number of atomic types    =            2
     number of electrons       =        20.00
     number of Kohn-Sham states=           10
     kinetic-energy cutoff     =      50.0000  Ry
     charge density cutoff     =     600.0000  Ry
     convergence threshold     =      1.0E-10
     mixing beta               =       0.7000
     number of iterations used =            8  plain     mixing
     Exchange-correlation      = PBESOL ( 1 410 8 0)
     EXX-fraction              =        0.00

     celldm(1)=  11.216293  celldm(2)=   0.000000  celldm(3)=   0.000000
     celldm(4)=   0.000000  celldm(5)=   0.000000  celldm(6)=   0.000000

     crystal axes: (cart. coord. in units of alat)
               a(1) = (   0.000000   0.496882   0.496882 )  
               a(2) = (   0.496882   0.000000   0.496882 )  
               a(3) = (   0.496882   0.496882   0.000000 )  

     reciprocal axes: (cart. coord. in units 2 pi/alat)
               b(1) = ( -1.006276  1.006276  1.006276 )  
               b(2) = (  1.006276 -1.006276  1.006276 )  
               b(3) = (  1.006276  1.006276 -1.006276 )  


     PseudoPot. # 1 for Pb read from file:
     /work/02599/asmiller/pseudo/gbrv/pbe_GBRV/pb_pbe_v1.uspp.F.UPF
     MD5 check sum: 3d1c1779aa92214d1e8f3a7db79003e2
     Pseudo is Ultrasoft + core correction, Zval = 14.0
     Generated by new atomic code, or converted to UPF format
     Using radial grid of  899 points,  6 beta functions with: 
                l(1) =   0
                l(2) =   0
                l(3) =   1
                l(4) =   1
                l(5) =   2
                l(6) =   2
     Q(r) pseudized with  6 coefficients,  rinner =    1.000   1.000   1.000
                                                       1.000   1.000

     PseudoPot. # 2 for S  read from file:
     /work/02599/asmiller/pseudo/gbrv/pbe_GBRV/s_pbe_v1.2.uspp.F.UPF
     MD5 check sum: 2e30864c2a0cf3bb4a9e1f7a4cfc7cf0
     Pseudo is Ultrasoft + core correction, Zval =  6.0
     Generated by new atomic code, or converted to UPF format
     Using radial grid of  907 points,  6 beta functions with: 
                l(1) =   0
                l(2) =   0
                l(3) =   1
                l(4) =   1
                l(5) =   2
                l(6) =   2
     Q(r) pseudized with  8 coefficients,  rinner =    1.300   1.300   1.300
                                                       1.300   1.300

     atomic species   valence    mass     pseudopotential
        Pb            14.00   207.20000     Pb( 1.00)
        S              6.00    32.06000     S ( 1.00)

     48 Sym. Ops., with inversion, found



   Cartesian axes

     site n.     atom                  positions (alat units)
         1           Pb  tau(   1) = (   0.0000000   0.0000000   0.0000000  )
         2           S   tau(   2) = (   0.4968816   0.4968816   0.4968816  )

     number of k points=    72
                       cart. coord. in units 2pi/alat
        k(    1) = (   0.0000000   0.0000000   0.0000000), wk =   0.0011574
        k(    2) = (   0.0838563   0.0838563  -0.0838563), wk =   0.0092593
        k(    3) = (   0.1677127   0.1677127  -0.1677127), wk =   0.0092593
        k(    4) = (   0.2515690   0.2515690  -0.2515690), wk =   0.0092593
        k(    5) = (   0.3354253   0.3354253  -0.3354253), wk =   0.0092593
        k(    6) = (   0.4192816   0.4192816  -0.4192816), wk =   0.0092593
        k(    7) = (  -0.5031380  -0.5031380   0.5031380), wk =   0.0046296
        k(    8) = (   0.1677127   0.0000000   0.0000000), wk =   0.0069444
        k(    9) = (   0.2515690   0.0838563  -0.0838563), wk =   0.0277778
        k(   10) = (   0.3354253   0.1677127  -0.1677127), wk =   0.0277778
        k(   11) = (   0.4192816   0.2515690  -0.2515690), wk =   0.0277778
        k(   12) = (   0.5031380   0.3354253  -0.3354253), wk =   0.0277778
        k(   13) = (  -0.4192816  -0.5869943   0.5869943), wk =   0.0277778
        k(   14) = (  -0.3354253  -0.5031380   0.5031380), wk =   0.0277778
        k(   15) = (  -0.2515690  -0.4192816   0.4192816), wk =   0.0277778
        k(   16) = (  -0.1677127  -0.3354253   0.3354253), wk =   0.0277778
        k(   17) = (  -0.0838563  -0.2515690   0.2515690), wk =   0.0277778
        k(   18) = (   0.0000000  -0.1677127   0.1677127), wk =   0.0138889
        k(   19) = (   0.3354253   0.0000000   0.0000000), wk =   0.0069444
        k(   20) = (   0.4192816   0.0838563  -0.0838563), wk =   0.0277778
        k(   21) = (   0.5031380   0.1677127  -0.1677127), wk =   0.0277778
        k(   22) = (   0.5869943   0.2515690  -0.2515690), wk =   0.0277778
        k(   23) = (  -0.3354253  -0.6708506   0.6708506), wk =   0.0277778
        k(   24) = (  -0.2515690  -0.5869943   0.5869943), wk =   0.0277778
        k(   25) = (  -0.1677127  -0.5031380   0.5031380), wk =   0.0277778
        k(   26) = (  -0.0838563  -0.4192816   0.4192816), wk =   0.0277778
        k(   27) = (   0.0000000  -0.3354253   0.3354253), wk =   0.0138889
        k(   28) = (   0.5031380   0.0000000   0.0000000), wk =   0.0069444
        k(   29) = (   0.5869943   0.0838563  -0.0838563), wk =   0.0277778
        k(   30) = (   0.6708506   0.1677127  -0.1677127), wk =   0.0277778
        k(   31) = (  -0.2515690  -0.7547070   0.7547070), wk =   0.0277778
        k(   32) = (  -0.1677127  -0.6708506   0.6708506), wk =   0.0277778
        k(   33) = (  -0.0838563  -0.5869943   0.5869943), wk =   0.0277778
        k(   34) = (   0.0000000  -0.5031380   0.5031380), wk =   0.0138889
        k(   35) = (   0.6708506   0.0000000   0.0000000), wk =   0.0069444
        k(   36) = (   0.7547070   0.0838563  -0.0838563), wk =   0.0277778
        k(   37) = (  -0.1677127  -0.8385633   0.8385633), wk =   0.0277778
        k(   38) = (  -0.0838563  -0.7547070   0.7547070), wk =   0.0277778
        k(   39) = (   0.0000000  -0.6708506   0.6708506), wk =   0.0138889
        k(   40) = (   0.8385633   0.0000000   0.0000000), wk =   0.0069444
        k(   41) = (  -0.0838563  -0.9224196   0.9224196), wk =   0.0277778
        k(   42) = (   0.0000000  -0.8385633   0.8385633), wk =   0.0138889
        k(   43) = (  -1.0062759   0.0000000   0.0000000), wk =   0.0034722
        k(   44) = (   0.3354253   0.1677127   0.0000000), wk =   0.0277778
        k(   45) = (   0.4192816   0.2515690  -0.0838563), wk =   0.0555556
        k(   46) = (   0.5031380   0.3354253  -0.1677127), wk =   0.0555556
        k(   47) = (  -0.4192816  -0.5869943   0.7547070), wk =   0.0555556
        k(   48) = (  -0.3354253  -0.5031380   0.6708506), wk =   0.0277778
        k(   49) = (   0.5031380   0.1677127   0.0000000), wk =   0.0277778
        k(   50) = (   0.5869943   0.2515690  -0.0838563), wk =   0.0555556
        k(   51) = (  -0.3354253  -0.6708506   0.8385633), wk =   0.0555556
        k(   52) = (  -0.2515690  -0.5869943   0.7547070), wk =   0.0555556
        k(   53) = (  -0.1677127  -0.5031380   0.6708506), wk =   0.0555556
        k(   54) = (  -0.0838563  -0.4192816   0.5869943), wk =   0.0555556
        k(   55) = (   0.0000000  -0.3354253   0.5031380), wk =   0.0277778
        k(   56) = (   0.6708506   0.1677127   0.0000000), wk =   0.0277778
        k(   57) = (  -0.2515690  -0.7547070   0.9224196), wk =   0.0555556
        k(   58) = (  -0.1677127  -0.6708506   0.8385633), wk =   0.0555556
        k(   59) = (  -0.0838563  -0.5869943   0.7547070), wk =   0.0555556
        k(   60) = (   0.0000000  -0.5031380   0.6708506), wk =   0.0277778
        k(   61) = (  -0.1677127  -0.8385633   1.0062759), wk =   0.0277778
        k(   62) = (  -0.0838563  -0.7547070   0.9224196), wk =   0.0555556
        k(   63) = (   0.0000000  -0.6708506   0.8385633), wk =   0.0277778
        k(   64) = (  -1.0062759   0.1677127   0.0000000), wk =   0.0138889
        k(   65) = (  -0.3354253  -0.6708506   1.0062759), wk =   0.0277778
        k(   66) = (  -0.2515690  -0.5869943   0.9224196), wk =   0.0555556
        k(   67) = (  -0.1677127  -0.5031380   0.8385633), wk =   0.0277778
        k(   68) = (  -0.1677127  -0.6708506   1.0062759), wk =   0.0277778
        k(   69) = (  -0.0838563  -0.5869943   0.9224196), wk =   0.0555556
        k(   70) = (   0.0000000  -0.5031380   0.8385633), wk =   0.0277778
        k(   71) = (  -1.0062759   0.3354253   0.0000000), wk =   0.0138889
        k(   72) = (  -1.0062759   0.5031380   0.0000000), wk =   0.0069444

     Dense  grid:    85923 G-vectors     FFT dimensions: (  64,  64,  64)

     Smooth grid:    16529 G-vectors     FFT dimensions: (  36,  36,  36)

     Largest allocated arrays     est. size (Mb)     dimensions
        Kohn-Sham Wavefunctions         0.03 Mb     (    182,   10)
        NL pseudopotentials             0.10 Mb     (    182,   36)
        Each V/rho on FFT grid          0.38 Mb     (  24576)
        Each G-vector array             0.05 Mb     (   7162)
        G-vector shells                 0.00 Mb     (    624)
     Largest temporary arrays     est. size (Mb)     dimensions
        Each subspace H/S matrix        0.00 Mb     (  10,  10)
        Each <psi_i|beta_j> matrix      0.01 Mb     (     36,   10)
        Arrays for rho mixing           3.00 Mb     (  24576,   8)

     Initial potential from superposition of free atoms
     Check: negative starting charge=   -0.016015

     starting charge   19.99761, renormalised to   20.00000

     negative rho (up, down):  0.160E-01 0.000E+00
     Starting wfc are   13 randomized atomic wfcs

     total cpu time spent up to now is        1.5 secs

     per-process dynamical memory:    55.2 Mb

     Self-consistent Calculation

     iteration #  1     ecut=    50.00 Ry     beta=0.70
     CG style diagonalization
     ethr =  1.00E-02,  avg # of iterations =  2.0

     Threshold (ethr) on eigenvalues was too large:
     Diagonalizing with lowered threshold

     CG style diagonalization
     ethr =  5.90E-04,  avg # of iterations =  2.1

     negative rho (up, down):  0.148E-01 0.000E+00

     total cpu time spent up to now is        2.9 secs

     total energy              =    -190.28058486 Ry
     Harris-Foulkes estimate   =    -190.36073406 Ry
     estimated scf accuracy    <       0.11181677 Ry

     iteration #  2     ecut=    50.00 Ry     beta=0.70
     CG style diagonalization
     ethr =  5.59E-04,  avg # of iterations =  3.8

     negative rho (up, down):  0.154E-01 0.000E+00

     total cpu time spent up to now is        3.9 secs

     total energy              =    -190.30454529 Ry
     Harris-Foulkes estimate   =    -190.36098270 Ry
     estimated scf accuracy    <       0.11581688 Ry

     iteration #  3     ecut=    50.00 Ry     beta=0.70
     CG style diagonalization
     ethr =  5.59E-04,  avg # of iterations =  3.5

     negative rho (up, down):  0.153E-01 0.000E+00

     total cpu time spent up to now is        4.8 secs

     total energy              =    -190.32924509 Ry
     Harris-Foulkes estimate   =    -190.32945112 Ry
     estimated scf accuracy    <       0.00060704 Ry

     iteration #  4     ecut=    50.00 Ry     beta=0.70
     CG style diagonalization
     ethr =  3.04E-06,  avg # of iterations =  4.5

     negative rho (up, down):  0.153E-01 0.000E+00

     total cpu time spent up to now is        6.0 secs

     total energy              =    -190.33160759 Ry
     Harris-Foulkes estimate   =    -190.33163565 Ry
     estimated scf accuracy    <       0.00007247 Ry

     iteration #  5     ecut=    50.00 Ry     beta=0.70
     CG style diagonalization
     ethr =  3.62E-07,  avg # of iterations =  4.7

     negative rho (up, down):  0.153E-01 0.000E+00

     total cpu time spent up to now is        7.2 secs

     total energy              =    -190.33164378 Ry
     Harris-Foulkes estimate   =    -190.33164423 Ry
     estimated scf accuracy    <       0.00000866 Ry

     iteration #  6     ecut=    50.00 Ry     beta=0.70
     CG style diagonalization
     ethr =  4.33E-08,  avg # of iterations =  6.4

     negative rho (up, down):  0.153E-01 0.000E+00

     total cpu time spent up to now is        8.8 secs

     total energy              =    -190.33166158 Ry
     Harris-Foulkes estimate   =    -190.33166077 Ry
     estimated scf accuracy    <       0.00001048 Ry

     iteration #  7     ecut=    50.00 Ry     beta=0.70
     CG style diagonalization
     ethr =  4.33E-08,  avg # of iterations =  3.3

     negative rho (up, down):  0.157E-01 0.000E+00

     total cpu time spent up to now is        9.7 secs

     total energy              =    -190.33165641 Ry
     Harris-Foulkes estimate   =    -190.33166260 Ry
     estimated scf accuracy    <       0.00001147 Ry

     iteration #  8     ecut=    50.00 Ry     beta=0.70
     CG style diagonalization
     ethr =  4.33E-08,  avg # of iterations =  4.0

     negative rho (up, down):  0.157E-01 0.000E+00

     total cpu time spent up to now is       10.7 secs

     total energy              =    -190.33165961 Ry
     Harris-Foulkes estimate   =    -190.33166160 Ry
     estimated scf accuracy    <       0.00000739 Ry

     iteration #  9     ecut=    50.00 Ry     beta=0.70
     CG style diagonalization
     ethr =  3.70E-08,  avg # of iterations =  3.3

     negative rho (up, down):  0.157E-01 0.000E+00

     total cpu time spent up to now is       11.6 secs

     total energy              =    -190.33165978 Ry
     Harris-Foulkes estimate   =    -190.33166023 Ry
     estimated scf accuracy    <       0.00000286 Ry

     iteration # 10     ecut=    50.00 Ry     beta=0.70
     CG style diagonalization
     ethr =  1.43E-08,  avg # of iterations =  3.1

     negative rho (up, down):  0.157E-01 0.000E+00

     total cpu time spent up to now is       12.4 secs

     total energy              =    -190.33165968 Ry
     Harris-Foulkes estimate   =    -190.33165999 Ry
     estimated scf accuracy    <       0.00000217 Ry

     iteration # 11     ecut=    50.00 Ry     beta=0.70
     CG style diagonalization
     ethr =  1.08E-08,  avg # of iterations =  3.2

     negative rho (up, down):  0.157E-01 0.000E+00

     total cpu time spent up to now is       13.3 secs

     total energy              =    -190.33166121 Ry
     Harris-Foulkes estimate   =    -190.33165983 Ry
     estimated scf accuracy    <       0.00000141 Ry

     iteration # 12     ecut=    50.00 Ry     beta=0.70
     CG style diagonalization
     ethr =  7.05E-09,  avg # of iterations =  3.9

     negative rho (up, down):  0.157E-01 0.000E+00

     total cpu time spent up to now is       14.3 secs

     total energy              =    -190.33165933 Ry
     Harris-Foulkes estimate   =    -190.33166168 Ry
     estimated scf accuracy    <       0.00000552 Ry

     iteration # 13     ecut=    50.00 Ry     beta=0.70
     CG style diagonalization
     ethr =  7.05E-09,  avg # of iterations =  3.8

     negative rho (up, down):  0.157E-01 0.000E+00

     total cpu time spent up to now is       15.3 secs

     total energy              =    -190.33166095 Ry
     Harris-Foulkes estimate   =    -190.33165987 Ry
     estimated scf accuracy    <       0.00000102 Ry

     iteration # 14     ecut=    50.00 Ry     beta=0.70
     CG style diagonalization
     ethr =  5.10E-09,  avg # of iterations =  3.8

     negative rho (up, down):  0.156E-01 0.000E+00

     total cpu time spent up to now is       16.3 secs

     total energy              =    -190.33165858 Ry
     Harris-Foulkes estimate   =    -190.33166124 Ry
     estimated scf accuracy    <       0.00000387 Ry

     iteration # 15     ecut=    50.00 Ry     beta=0.70
     CG style diagonalization
     ethr =  5.10E-09,  avg # of iterations =  4.0

     negative rho (up, down):  0.156E-01 0.000E+00

     total cpu time spent up to now is       17.3 secs

     total energy              =    -190.33165943 Ry
     Harris-Foulkes estimate   =    -190.33165946 Ry
     estimated scf accuracy    <       0.00000011 Ry

     iteration # 16     ecut=    50.00 Ry     beta=0.70
     CG style diagonalization
     ethr =  5.72E-10,  avg # of iterations =  6.7

     negative rho (up, down):  0.156E-01 0.000E+00

     total cpu time spent up to now is       19.0 secs

     total energy              =    -190.33165972 Ry
     Harris-Foulkes estimate   =    -190.33165970 Ry
     estimated scf accuracy    <       0.00000005 Ry

     iteration # 17     ecut=    50.00 Ry     beta=0.70
     CG style diagonalization
     ethr =  2.67E-10,  avg # of iterations =  4.9

     negative rho (up, down):  0.156E-01 0.000E+00

     total cpu time spent up to now is       20.2 secs

     total energy              =    -190.33165975 Ry
     Harris-Foulkes estimate   =    -190.33165976 Ry
     estimated scf accuracy    <       0.00000012 Ry

     iteration # 18     ecut=    50.00 Ry     beta=0.70
     CG style diagonalization
     ethr =  2.67E-10,  avg # of iterations =  3.4

     negative rho (up, down):  0.156E-01 0.000E+00

     total cpu time spent up to now is       21.1 secs

     total energy              =    -190.33165978 Ry
     Harris-Foulkes estimate   =    -190.33165975 Ry
     estimated scf accuracy    <       0.00000009 Ry

     iteration # 19     ecut=    50.00 Ry     beta=0.70
     CG style diagonalization
     ethr =  2.67E-10,  avg # of iterations =  3.2

     negative rho (up, down):  0.156E-01 0.000E+00

     total cpu time spent up to now is       22.0 secs

     total energy              =    -190.33165966 Ry
     Harris-Foulkes estimate   =    -190.33165979 Ry
     estimated scf accuracy    <       0.00000015 Ry

     iteration # 20     ecut=    50.00 Ry     beta=0.70
     CG style diagonalization
     ethr =  2.67E-10,  avg # of iterations =  4.1

     negative rho (up, down):  0.156E-01 0.000E+00

     total cpu time spent up to now is       23.0 secs

     total energy              =    -190.33165969 Ry
     Harris-Foulkes estimate   =    -190.33165976 Ry
     estimated scf accuracy    <       0.00000011 Ry

     iteration # 21     ecut=    50.00 Ry     beta=0.70
     CG style diagonalization
     ethr =  2.67E-10,  avg # of iterations =  3.9

     negative rho (up, down):  0.156E-01 0.000E+00

     total cpu time spent up to now is       24.0 secs

     total energy              =    -190.33165972 Ry
     Harris-Foulkes estimate   =    -190.33165972 Ry
     estimated scf accuracy    <          1.9E-09 Ry

     iteration # 22     ecut=    50.00 Ry     beta=0.70
     CG style diagonalization
     ethr =  9.35E-12,  avg # of iterations =  7.4

     negative rho (up, down):  0.156E-01 0.000E+00

     total cpu time spent up to now is       25.8 secs

     total energy              =    -190.33165972 Ry
     Harris-Foulkes estimate   =    -190.33165972 Ry
     estimated scf accuracy    <          3.9E-10 Ry

     iteration # 23     ecut=    50.00 Ry     beta=0.70
     CG style diagonalization
     ethr =  1.94E-12,  avg # of iterations =  6.3

     negative rho (up, down):  0.156E-01 0.000E+00

     total cpu time spent up to now is       27.4 secs

     total energy              =    -190.33165972 Ry
     Harris-Foulkes estimate   =    -190.33165972 Ry
     estimated scf accuracy    <          1.4E-10 Ry

     iteration # 24     ecut=    50.00 Ry     beta=0.70
     CG style diagonalization
     ethr =  7.17E-13,  avg # of iterations =  5.5

     negative rho (up, down):  0.156E-01 0.000E+00

     total cpu time spent up to now is       28.7 secs

     End of self-consistent calculation

          k = 0.0000 0.0000 0.0000 (  2085 PWs)   bands (ev):

    -8.0041  -8.0041  -8.0041  -7.9905  -7.9905  -5.0022   2.7292   6.5213
     6.5213   6.5213

          k = 0.0839 0.0839-0.0839 (  2073 PWs)   bands (ev):

    -8.0038  -8.0023  -8.0023  -7.9913  -7.9913  -4.9404   2.5020   6.5408
     6.5408   6.6947

          k = 0.1677 0.1677-0.1677 (  2052 PWs)   bands (ev):

    -8.0034  -8.0034  -8.0030  -7.9872  -7.9872  -4.7601   1.9379   6.5984
     6.5984   7.1002

          k = 0.2516 0.2516-0.2516 (  2066 PWs)   bands (ev):

    -8.0106  -8.0106  -8.0022  -7.9759  -7.9759  -4.4798   1.2311   6.6893
     6.6893   7.5644

          k = 0.3354 0.3354-0.3354 (  2054 PWs)   bands (ev):

    -8.0187  -8.0187  -8.0018  -7.9638  -7.9638  -4.1419   0.5335   6.7985
     6.7985   8.0043

          k = 0.4193 0.4193-0.4193 (  2060 PWs)   bands (ev):

    -8.0247  -8.0247  -8.0016  -7.9547  -7.9547  -3.8344  -0.0089   6.8942
     6.8942   8.4221

          k =-0.5031-0.5031 0.5031 (  2060 PWs)   bands (ev):

    -8.0269  -8.0269  -8.0016  -7.9514  -7.9514  -3.7015  -0.2231   6.9336
     6.9336   8.7946

          k = 0.1677 0.0000 0.0000 (  2065 PWs)   bands (ev):

    -8.0060  -7.9998  -7.9998  -7.9962  -7.9886  -4.9192   2.4522   6.4260
     6.4260   6.9579

          k = 0.2516 0.0839-0.0839 (  2053 PWs)   bands (ev):

    -8.0070  -8.0042  -7.9976  -7.9934  -7.9844  -4.7767   2.0535   6.3617
     6.4131   7.3549

          k = 0.3354 0.1677-0.1677 (  2059 PWs)   bands (ev):

    -8.0155  -8.0043  -8.0022  -7.9845  -7.9737  -4.5272   1.4431   6.3634
     6.4976   7.7111

          k = 0.4193 0.2516-0.2516 (  2060 PWs)   bands (ev):

    -8.0253  -8.0099  -8.0021  -7.9740  -7.9619  -4.2042   0.7737   6.4374
     6.5876   7.9407

          k = 0.5031 0.3354-0.3354 (  2068 PWs)   bands (ev):

    -8.0320  -8.0173  -8.0003  -7.9640  -7.9535  -3.8778   0.1906   6.5753
     6.6022   8.0616

          k =-0.4193-0.5870 0.5870 (  2063 PWs)   bands (ev):

    -8.0341  -8.0222  -7.9994  -7.9573  -7.9508  -3.6745  -0.1387   6.5001
     6.7474   8.2084

          k =-0.3354-0.5031 0.5031 (  2069 PWs)   bands (ev):

    -8.0311  -8.0233  -7.9993  -7.9556  -7.9549  -3.7197  -0.0720   6.3366
     6.8990   8.3729

          k =-0.2516-0.4193 0.4193 (  2059 PWs)   bands (ev):

    -8.0239  -8.0201  -8.0000  -7.9646  -7.9595  -3.9819   0.3552   6.1987
     6.9698   8.2928

          k =-0.1677-0.3354 0.3354 (  2059 PWs)   bands (ev):

    -8.0144  -8.0134  -8.0013  -7.9774  -7.9678  -4.3187   0.9756   6.1382
     6.9372   7.9644

          k =-0.0839-0.2516 0.2516 (  2059 PWs)   bands (ev):

    -8.0056  -8.0050  -8.0028  -7.9899  -7.9780  -4.6226   1.6328   6.1775
     6.8279   7.5196

          k = 0.0000-0.1677 0.1677 (  2061 PWs)   bands (ev):

    -8.0040  -8.0008  -7.9992  -7.9967  -7.9867  -4.8384   2.1897   6.3236
     6.6839   7.0465

          k = 0.3354 0.0000 0.0000 (  2053 PWs)   bands (ev):

    -8.0171  -8.0112  -7.9881  -7.9881  -7.9834  -4.6715   1.9229   6.1698
     6.1698   7.6503

          k = 0.4193 0.0839-0.0839 (  2052 PWs)   bands (ev):

    -8.0327  -8.0125  -7.9891  -7.9804  -7.9727  -4.4563   1.5501   6.0576
     6.0926   7.5956

          k = 0.5031 0.1677-0.1677 (  2059 PWs)   bands (ev):

    -8.0464  -8.0096  -7.9954  -7.9737  -7.9602  -4.1599   1.0265   6.0454
     6.0880   7.2957

          k = 0.5870 0.2516-0.2516 (  2074 PWs)   bands (ev):

    -8.0551  -8.0037  -8.0029  -7.9691  -7.9516  -3.8395   0.4907   5.9636
     6.1397   7.1394

          k =-0.3354-0.6709 0.6709 (  2070 PWs)   bands (ev):

    -8.0568  -8.0096  -7.9972  -7.9665  -7.9492  -3.5979   0.1042   5.6905
     6.3302   7.2938

          k =-0.2516-0.5870 0.5870 (  2070 PWs)   bands (ev):

    -8.0513  -8.0138  -7.9932  -7.9652  -7.9536  -3.5608   0.0210   5.4540
     6.5834   7.6360

          k =-0.1677-0.5031 0.5031 (  2071 PWs)   bands (ev):

    -8.0402  -8.0147  -7.9935  -7.9648  -7.9634  -3.7540   0.2678   5.3620
     6.8335   8.0428

          k =-0.0839-0.4193 0.4193 (  2061 PWs)   bands (ev):

    -8.0263  -8.0121  -7.9968  -7.9756  -7.9663  -4.0664   0.7119   5.4556
     6.9880   8.2563

          k = 0.0000-0.3354 0.3354 (  2057 PWs)   bands (ev):

    -8.0135  -8.0078  -8.0008  -7.9861  -7.9707  -4.3795   1.2014   5.7402
     6.9809   8.0094

          k = 0.5031 0.0000 0.0000 (  2045 PWs)   bands (ev):

    -8.0567  -8.0183  -7.9763  -7.9716  -7.9716  -4.2778   1.4817   5.8316
     5.8316   6.9796

          k = 0.5870 0.0839-0.0839 (  2053 PWs)   bands (ev):

    -8.0776  -8.0195  -7.9791  -7.9642  -7.9589  -4.0183   1.2193   5.6865
     5.7191   6.3402

          k = 0.6709 0.1677-0.1677 (  2067 PWs)   bands (ev):

    -8.0900  -8.0152  -7.9853  -7.9606  -7.9495  -3.7272   0.8378   5.3041
     5.7360   6.2156

          k =-0.2516-0.7547 0.7547 (  2071 PWs)   bands (ev):

    -8.0916  -8.0062  -7.9925  -7.9620  -7.9467  -3.4857   0.4741   4.8601
     5.8833   6.4710

          k =-0.1677-0.6709 0.6709 (  2070 PWs)   bands (ev):

    -8.0825  -7.9993  -7.9945  -7.9677  -7.9506  -3.3964   0.2694   4.6113
     6.1447   6.8746

          k =-0.0839-0.5870 0.5870 (  2065 PWs)   bands (ev):

    -8.0655  -8.0049  -7.9845  -7.9747  -7.9593  -3.5112   0.2865   4.6245
     6.4786   7.3818

          k = 0.0000-0.5031 0.5031 (  2065 PWs)   bands (ev):

    -8.0450  -8.0090  -7.9889  -7.9707  -7.9690  -3.7701   0.4650   4.9173
     6.8024   7.9348

          k = 0.6709 0.0000 0.0000 (  2064 PWs)   bands (ev):

    -8.1067  -8.0254  -7.9693  -7.9547  -7.9547  -3.8053   1.2733   5.4016
     5.5084   5.5084

          k = 0.7547 0.0839-0.0839 (  2072 PWs)   bands (ev):

    -8.1250  -8.0255  -7.9705  -7.9495  -7.9466  -3.5656   1.1556   4.6436
     5.4381   5.5529

          k =-0.1677-0.8386 0.8386 (  2070 PWs)   bands (ev):

    -8.1282  -8.0194  -7.9762  -7.9503  -7.9432  -3.3634   0.9140   4.1304
     5.5165   5.8123

          k =-0.0839-0.7547 0.7547 (  2080 PWs)   bands (ev):

    -8.1165  -8.0079  -7.9842  -7.9571  -7.9461  -3.2700   0.6398   3.9466
     5.7374   6.2226

          k = 0.0000-0.6709 0.6709 (  2079 PWs)   bands (ev):

    -8.0935  -7.9940  -7.9936  -7.9679  -7.9527  -3.3267   0.4151   4.1230
     6.0764   6.7517

          k = 0.8386 0.0000 0.0000 (  2064 PWs)   bands (ev):

    -8.1488  -8.0306  -7.9641  -7.9420  -7.9420  -3.3954   1.3487   4.0106
     5.2814   5.2814

          k =-0.0839-0.9224 0.9224 (  2066 PWs)   bands (ev):

    -8.1553  -8.0290  -7.9656  -7.9408  -7.9393  -3.2663   1.3215   3.5914
     5.2811   5.3642

          k = 0.0000-0.8386 0.8386 (  2083 PWs)   bands (ev):

    -8.1434  -8.0209  -7.9724  -7.9465  -7.9413  -3.2201   1.0435   3.5703
     5.4378   5.7053

          k =-1.0063 0.0000 0.0000 (  2068 PWs)   bands (ev):

    -8.1652  -8.0325  -7.9622  -7.9373  -7.9373  -3.2289   1.5074   3.3742
     5.2003   5.2003

          k = 0.3354 0.1677 0.0000 (  2054 PWs)   bands (ev):

    -8.0149  -8.0075  -7.9963  -7.9885  -7.9769  -4.5978   1.6797   6.0508
     6.5369   7.6962

          k = 0.4193 0.2516-0.0839 (  2062 PWs)   bands (ev):

    -8.0267  -8.0052  -8.0013  -7.9802  -7.9674  -4.3226   1.1543   5.8369
     6.6764   7.8385

          k = 0.5031 0.3354-0.1677 (  2061 PWs)   bands (ev):

    -8.0372  -8.0089  -8.0003  -7.9718  -7.9589  -3.9959   0.5919   5.7629
     6.6749   7.8418

          k =-0.4193-0.5870 0.7547 (  2061 PWs)   bands (ev):

    -8.0443  -8.0148  -7.9963  -7.9658  -7.9532  -3.7046   0.1355   5.8094
     6.4983   7.8865

          k =-0.3354-0.5031 0.6709 (  2054 PWs)   bands (ev):

    -8.0467  -8.0170  -7.9948  -7.9636  -7.9513  -3.5811  -0.0471   5.8731
     6.3675   7.9269

          k = 0.5031 0.1677 0.0000 (  2057 PWs)   bands (ev):

    -8.0509  -8.0137  -7.9886  -7.9720  -7.9648  -4.2167   1.2516   5.6952
     6.1738   7.1643

          k = 0.5870 0.2516-0.0839 (  2065 PWs)   bands (ev):

    -8.0651  -8.0102  -7.9934  -7.9659  -7.9567  -3.9176   0.8462   5.4588
     6.0487   6.9677

          k =-0.3354-0.6709 0.8386 (  2075 PWs)   bands (ev):

    -8.0725  -8.0041  -7.9980  -7.9658  -7.9506  -3.6295   0.4460   5.3254
     5.7264   7.1793

          k =-0.2516-0.5870 0.7547 (  2064 PWs)   bands (ev):

    -8.0723  -8.0062  -7.9916  -7.9701  -7.9492  -3.4603   0.1969   5.1208
     5.7224   7.4853

          k =-0.1677-0.5031 0.6709 (  2062 PWs)   bands (ev):

    -8.0653  -8.0083  -7.9879  -7.9727  -7.9531  -3.5028   0.2098   4.9841
     5.9886   7.7393

          k =-0.0839-0.4193 0.5870 (  2069 PWs)   bands (ev):

    -8.0535  -8.0071  -7.9944  -7.9689  -7.9609  -3.7327   0.4555   5.0514
     6.3674   7.8360

          k = 0.0000-0.3354 0.5031 (  2060 PWs)   bands (ev):

    -8.0398  -8.0038  -8.0017  -7.9725  -7.9647  -4.0385   0.8059   5.3469
     6.6799   7.8176

          k = 0.6709 0.1677 0.0000 (  2067 PWs)   bands (ev):

    -8.0981  -8.0201  -7.9789  -7.9549  -7.9539  -3.7630   1.0528   5.3399
     5.3594   6.1344

          k =-0.2516-0.7547 0.9224 (  2071 PWs)   bands (ev):

    -8.1078  -8.0149  -7.9835  -7.9554  -7.9470  -3.5095   0.8021   4.7428
     5.2033   6.4622

          k =-0.1677-0.6709 0.8386 (  2072 PWs)   bands (ev):

    -8.1054  -8.0050  -7.9892  -7.9625  -7.9448  -3.3390   0.5580   4.3667
     5.2518   6.8836

          k =-0.0839-0.5870 0.7547 (  2075 PWs)   bands (ev):

    -8.0927  -7.9986  -7.9883  -7.9736  -7.9483  -3.3264   0.4091   4.2888
     5.4924   7.3204

          k = 0.0000-0.5031 0.6709 (  2060 PWs)   bands (ev):

    -8.0736  -8.0029  -7.9855  -7.9762  -7.9556  -3.4804   0.3842   4.5290
     5.8914   7.6843

          k =-0.1677-0.8386 1.0063 (  2071 PWs)   bands (ev):

    -8.1384  -8.0248  -7.9707  -7.9466  -7.9420  -3.3750   1.1269   4.0677
     5.1252   5.8212

          k =-0.0839-0.7547 0.9224 (  2080 PWs)   bands (ev):

    -8.1358  -8.0176  -7.9759  -7.9524  -7.9397  -3.2487   0.9606   3.7682
     5.0203   6.2730

          k = 0.0000-0.6709 0.8386 (  2085 PWs)   bands (ev):

    -8.1188  -8.0057  -7.9842  -7.9627  -7.9425  -3.2305   0.6900   3.8496
     5.1530   6.7934

          k =-1.0063 0.1677 0.0000 (  2074 PWs)   bands (ev):

    -8.1542  -8.0265  -7.9676  -7.9440  -7.9373  -3.2196   1.2676   3.4726
     5.0418   5.7306

          k =-0.3354-0.6709 1.0063 (  2061 PWs)   bands (ev):

    -8.0797  -8.0055  -7.9955  -7.9606  -7.9554  -3.6444   0.6457   4.9840
     5.5443   7.2441

          k =-0.2516-0.5870 0.9224 (  2069 PWs)   bands (ev):

    -8.0888  -8.0000  -7.9942  -7.9692  -7.9481  -3.4171   0.4740   4.7168
     5.0974   7.5773

          k =-0.1677-0.5031 0.8386 (  2072 PWs)   bands (ev):

    -8.0919  -8.0009  -7.9834  -7.9802  -7.9453  -3.3261   0.4032   4.6495
     4.9141   7.7192

          k =-0.1677-0.6709 1.0063 (  2071 PWs)   bands (ev):

    -8.1154  -8.0086  -7.9859  -7.9606  -7.9422  -3.3232   0.7481   4.3055
     4.7348   6.9881

          k =-0.0839-0.5870 0.9224 (  2076 PWs)   bands (ev):

    -8.1131  -7.9983  -7.9887  -7.9729  -7.9397  -3.2300   0.6666   4.1133
     4.5737   7.4638

          k = 0.0000-0.5031 0.8386 (  2079 PWs)   bands (ev):

    -8.1032  -7.9957  -7.9860  -7.9810  -7.9424  -3.2659   0.5617   4.2656
     4.6995   7.7135

          k =-1.0063 0.3354 0.0000 (  2078 PWs)   bands (ev):

    -8.1297  -8.0098  -7.9807  -7.9622  -7.9373  -3.2001   0.8828   3.7537
     4.6466   6.9070

          k =-1.0063 0.5031 0.0000 (  2120 PWs)   bands (ev):

    -8.1155  -7.9892  -7.9864  -7.9864  -7.9373  -3.1899   0.7198   4.1730
     4.1730   7.7241

!    total energy              =    -190.33165972 Ry
     Harris-Foulkes estimate   =    -190.33165972 Ry
     estimated scf accuracy    <          6.5E-12 Ry

     The total energy is the sum of the following terms:

     one-electron contribution =     -35.72612099 Ry
     hartree contribution      =      31.09982809 Ry
     xc contribution           =     -73.85131725 Ry
     ewald contribution        =    -111.85404957 Ry

     convergence has been achieved in  24 iterations

     Forces acting on atoms (Ry/au):


     negative rho (up, down):  0.156E-01 0.000E+00
     atom    1 type  1   force =     0.00000000    0.00000000    0.00000000
     atom    2 type  2   force =     0.00000000    0.00000000    0.00000000

     Total force =     0.000000     Total SCF correction =     0.000000


     entering subroutine stress ...


     negative rho (up, down):  0.156E-01 0.000E+00
          total   stress  (Ry/bohr**3)                   (kbar)     P=    0.10
   0.00000067   0.00000000   0.00000000          0.10      0.00      0.00
   0.00000000   0.00000067   0.00000000          0.00      0.10      0.00
   0.00000000   0.00000000   0.00000067          0.00      0.00      0.10


     Writing output data file PbS.save
 
     init_run     :      1.13s CPU      1.23s WALL (       1 calls)
     electrons    :     26.03s CPU     27.20s WALL (       1 calls)
     forces       :      0.17s CPU      0.17s WALL (       1 calls)
     stress       :      0.52s CPU      0.53s WALL (       1 calls)

     Called by init_run:
     wfcinit      :      0.31s CPU      0.33s WALL (       1 calls)
     potinit      :      0.14s CPU      0.14s WALL (       1 calls)

     Called by electrons:
     c_bands      :     20.25s CPU     20.59s WALL (      25 calls)
     sum_band     :      3.52s CPU      3.57s WALL (      25 calls)
     v_of_rho     :      0.59s CPU      0.61s WALL (      25 calls)
     newd         :      1.30s CPU      1.31s WALL (      25 calls)
     mix_rho      :      0.09s CPU      0.11s WALL (      25 calls)

     Called by c_bands:
     init_us_2    :      0.16s CPU      0.18s WALL (    1908 calls)
     ccgdiagg     :     16.41s CPU     16.65s WALL (     900 calls)
     wfcrot       :      3.65s CPU      3.68s WALL (     864 calls)

     Called by *cgdiagg:
     h_psi        :     14.22s CPU     14.73s WALL (   30071 calls)
     s_psi        :      0.94s CPU      1.04s WALL (   59278 calls)
     cdiaghg      :      0.07s CPU      0.08s WALL (     864 calls)

     Called by h_psi:
     add_vuspsi   :      0.40s CPU      0.57s WALL (   30071 calls)

     General routines
     calbec       :      2.79s CPU      2.65s WALL (   60250 calls)
     fft          :      0.60s CPU      0.64s WALL (     425 calls)
     ffts         :      0.00s CPU      0.01s WALL (      50 calls)
     fftw         :     11.21s CPU     11.32s WALL (   84910 calls)
     interpolate  :      0.10s CPU      0.10s WALL (      50 calls)
     davcio       :      0.02s CPU      0.12s WALL (    2808 calls)
 
     Parallel routines
     fft_scatter  :      6.17s CPU      6.11s WALL (   85385 calls)
 
     PWSCF        :    28.23s CPU        32.36s WALL

 
   This run was terminated on:  23:26:54  17Aug2014            

=------------------------------------------------------------------------------=
   JOB DONE.
=------------------------------------------------------------------------------=
TACC: Shutting down parallel environment.
TACC: Shutdown complete. Exiting.
