TACC: Starting up job 2117630
TACC: Setting up parallel environment for MVAPICH ssh-based mpirun.
TACC: Setup complete. Running job script.
TACC: starting parallel tasks...

     Program PHONON v.5.0.1 starts on 17Aug2014 at 23:26:57 

     This program is part of the open-source Quantum ESPRESSO suite
     for quantum simulation of materials; please cite
         "P. Giannozzi et al., J. Phys.:Condens. Matter 21 395502 (2009);
          URL http://www.quantum-espresso.org", 
     in publications or presentations arising from this work. More details at
     http://www.quantum-espresso.org/quote.php

     Parallel version (MPI), running on    24 processors
     K-points division:     npool     =    2
     R & G space division:  proc/pool =   12

     Ultrasoft (Vanderbilt) Pseudopotentials

   Info: using nr1, nr2, nr3 values from input

   Info: using nr1s, nr2s, nr3s values from input

     IMPORTANT: XC functional enforced from input :
     Exchange-correlation      = PBESOL ( 1 410 8 0)
     EXX-fraction              =        0.00
     Any further DFT definition will be discarded
     Please, verify this is what you really want

 
     Parallelization info
     --------------------
     sticks:   dense  smooth     PW     G-vecs:    dense   smooth      PW
     Min         213      70     21                 7158     1369     223
     Max         214      71     22                 7162     1382     226
     Sum        2563     847    253                85923    16529    2685
 

     negative rho (up, down):  0.156E-01 0.000E+00


     Dynamical matrices for ( 4, 4, 4)  uniform grid of q-points
     (   8q-points):
       N         xq(1)         xq(2)         xq(3) 
       1   0.000000000   0.000000000   0.000000000
       2   0.251568987   0.251568987  -0.251568987
       3  -0.503137974  -0.503137974   0.503137974
       4   0.503137974   0.000000000   0.000000000
       5  -0.251568987  -0.754706961   0.754706961
       6   0.000000000  -0.503137974   0.503137974
       7  -1.006275948   0.000000000   0.000000000
       8  -1.006275948   0.503137974   0.000000000

     Calculation of q =    0.0000000   0.0000000   0.0000000

                                                                                

     bravais-lattice index     =            0
     lattice parameter (alat)  =      11.2163  a.u.
     unit-cell volume          =     346.2077 (a.u.)^3
     number of atoms/cell      =            2
     number of atomic types    =            2
     kinetic-energy cut-off    =      50.0000  Ry
     charge density cut-off    =     600.0000  Ry
     convergence threshold     =      1.0E-16
     beta                      =       0.7000
     number of iterations used =            4
     Exchange-correlation      = PBESOL ( 1 410 8 0)
     EXX-fraction              =        0.00


     celldm(1)=   11.21629  celldm(2)=    0.00000  celldm(3)=    0.00000
     celldm(4)=    0.00000  celldm(5)=    0.00000  celldm(6)=    0.00000

     crystal axes: (cart. coord. in units of alat)
               a(1) = (  0.0000  0.4969  0.4969 )  
               a(2) = (  0.4969  0.0000  0.4969 )  
               a(3) = (  0.4969  0.4969  0.0000 )  

     reciprocal axes: (cart. coord. in units 2 pi/alat)
               b(1) = ( -1.0063  1.0063  1.0063 )  
               b(2) = (  1.0063 -1.0063  1.0063 )  
               b(3) = (  1.0063  1.0063 -1.0063 )  


     Atoms inside the unit cell: 

   Cartesian axes

     site n.  atom      mass           positions (alat units)
        1        Pb 207.2000   tau( 1) = (    0.00000    0.00000    0.00000  )
        2        S   32.0600   tau( 2) = (    0.49688    0.49688    0.49688  )

     Computing dynamical matrix for 
                    q = (   0.0000000   0.0000000   0.0000000 )
 
     49 Sym.Ops. (with q -> -q+G )


     G cutoff = 1912.0101  (   7162 G-vectors)     FFT grid: ( 64, 64, 64)
     G cutoff =  637.3367  (   1378 G-vectors)  smooth grid: ( 36, 36, 36)
     number of k points=    72

     PseudoPot. # 1 for Pb read from file:
     /work/02599/asmiller/pseudo/gbrv/pbe_GBRV/pb_pbe_v1.uspp.F.UPF
     MD5 check sum: a5f44a0c8587cfbb5a05efeead6b9227
     Pseudo is Ultrasoft + core correction, Zval = 14.0
     Generated by new atomic code, or converted to UPF format
     Using radial grid of  899 points,  6 beta functions with: 
                l(1) =   0
                l(2) =   0
                l(3) =   1
                l(4) =   1
                l(5) =   2
                l(6) =   2
     Q(r) pseudized with  6 coefficients,  rinner =    1.000   1.000   1.000
                                                       1.000   1.000

     PseudoPot. # 2 for S  read from file:
     /work/02599/asmiller/pseudo/gbrv/pbe_GBRV/s_pbe_v1.2.uspp.F.UPF
     MD5 check sum: 18038e556f4a7980c01aa0ca135f6653
     Pseudo is Ultrasoft + core correction, Zval =  6.0
     Generated by new atomic code, or converted to UPF format
     Using radial grid of  907 points,  6 beta functions with: 
                l(1) =   0
                l(2) =   0
                l(3) =   1
                l(4) =   1
                l(5) =   2
                l(6) =   2
     Q(r) pseudized with  8 coefficients,  rinner =    1.300   1.300   1.300
                                                       1.300   1.300


     Electric field:
     Dielectric constant
     Born effective charges in two ways 


     Atomic displacements:
     There are   2 irreducible representations

     Representation     1      3 modes -T_1u G_15  G_4- To be done

     Representation     2      3 modes -T_1u G_15  G_4- To be done



     Alpha used in Ewald sum =   2.8000

     negative rho (up, down):  0.156E-01 0.000E+00
     PHONON       :     4.41s CPU         5.30s WALL


     Electric Fields Calculation

      iter #   1 total cpu time :    25.2 secs   av.it.:   7.3
      thresh= 0.100E-01 alpha_mix =  0.700 |ddv_scf|^2 =  0.396E-07

      iter #   2 total cpu time :    36.6 secs   av.it.:  16.6
      thresh= 0.199E-04 alpha_mix =  0.700 |ddv_scf|^2 =  0.912E-08

      iter #   3 total cpu time :    47.2 secs   av.it.:  16.1
      thresh= 0.955E-05 alpha_mix =  0.700 |ddv_scf|^2 =  0.176E-09

      iter #   4 total cpu time :    57.6 secs   av.it.:  15.7
      thresh= 0.133E-05 alpha_mix =  0.700 |ddv_scf|^2 =  0.144E-10

      iter #   5 total cpu time :    68.0 secs   av.it.:  15.9
      thresh= 0.379E-06 alpha_mix =  0.700 |ddv_scf|^2 =  0.122E-12

      iter #   6 total cpu time :    78.6 secs   av.it.:  16.2
      thresh= 0.349E-07 alpha_mix =  0.700 |ddv_scf|^2 =  0.350E-15

      iter #   7 total cpu time :    89.0 secs   av.it.:  16.2
      thresh= 0.187E-08 alpha_mix =  0.700 |ddv_scf|^2 =  0.127E-16

     End of electric fields calculation

          Dielectric constant in cartesian axis 

          (      35.965980564       0.000000000       0.000000000 )
          (       0.000000000      35.965980564       0.000000000 )
          (       0.000000000       0.000000000      35.965980564 )

          Effective charges (d Force / dE) in cartesian axis

           atom      1   Pb 
      Ex  (        3.66976        0.00000        0.00000 )
      Ey  (        0.00000        3.66976        0.00000 )
      Ez  (        0.00000        0.00000        3.66976 )
           atom      2   S  
      Ex  (       -3.78466        0.00000        0.00000 )
      Ey  (        0.00000       -3.78466        0.00000 )
      Ez  (        0.00000        0.00000       -3.78466 )


     Representation #  1 modes #   1  2  3

     Self-consistent Calculation

      iter #   1 total cpu time :    99.3 secs   av.it.:   5.8
      thresh= 0.100E-01 alpha_mix =  0.700 |ddv_scf|^2 =  0.374E-07

      iter #   2 total cpu time :   109.9 secs   av.it.:  16.5
      thresh= 0.193E-04 alpha_mix =  0.700 |ddv_scf|^2 =  0.813E-08

      iter #   3 total cpu time :   120.4 secs   av.it.:  16.4
      thresh= 0.902E-05 alpha_mix =  0.700 |ddv_scf|^2 =  0.164E-09

      iter #   4 total cpu time :   131.2 secs   av.it.:  17.0
      thresh= 0.128E-05 alpha_mix =  0.700 |ddv_scf|^2 =  0.122E-10

      iter #   5 total cpu time :   142.1 secs   av.it.:  17.2
      thresh= 0.349E-06 alpha_mix =  0.700 |ddv_scf|^2 =  0.461E-13

      iter #   6 total cpu time :   152.6 secs   av.it.:  16.5
      thresh= 0.215E-07 alpha_mix =  0.700 |ddv_scf|^2 =  0.223E-15

      iter #   7 total cpu time :   163.4 secs   av.it.:  17.2
      thresh= 0.149E-08 alpha_mix =  0.700 |ddv_scf|^2 =  0.413E-17

     End of self-consistent calculation

     Convergence has been achieved 


     Representation #  2 modes #   4  5  6

     Self-consistent Calculation

      iter #   1 total cpu time :   171.2 secs   av.it.:   8.1
      thresh= 0.100E-01 alpha_mix =  0.700 |ddv_scf|^2 =  0.436E-06

      iter #   2 total cpu time :   182.2 secs   av.it.:  17.8
      thresh= 0.660E-04 alpha_mix =  0.700 |ddv_scf|^2 =  0.144E-06

      iter #   3 total cpu time :   193.2 secs   av.it.:  17.1
      thresh= 0.380E-04 alpha_mix =  0.700 |ddv_scf|^2 =  0.266E-09

      iter #   4 total cpu time :   204.3 secs   av.it.:  17.8
      thresh= 0.163E-05 alpha_mix =  0.700 |ddv_scf|^2 =  0.140E-10

      iter #   5 total cpu time :   215.4 secs   av.it.:  18.0
      thresh= 0.374E-06 alpha_mix =  0.700 |ddv_scf|^2 =  0.542E-12

      iter #   6 total cpu time :   225.9 secs   av.it.:  16.6
      thresh= 0.736E-07 alpha_mix =  0.700 |ddv_scf|^2 =  0.170E-14

      iter #   7 total cpu time :   236.4 secs   av.it.:  16.7
      thresh= 0.412E-08 alpha_mix =  0.700 |ddv_scf|^2 =  0.117E-15

      iter #   8 total cpu time :   246.9 secs   av.it.:  16.6
      thresh= 0.108E-08 alpha_mix =  0.700 |ddv_scf|^2 =  0.747E-18

     End of self-consistent calculation

     Convergence has been achieved 
 
     Number of q in the star =    1
     List of q in the star:
          1   0.000000000   0.000000000   0.000000000

          Dielectric constant in cartesian axis 

          (      35.965980564       0.000000000       0.000000000 )
          (       0.000000000      35.965980564       0.000000000 )
          (       0.000000000       0.000000000      35.965980564 )

          Effective charges (d Force / dE) in cartesian axis

           atom      1   Pb 
      Ex  (        3.66976        0.00000        0.00000 )
      Ey  (        0.00000        3.66976        0.00000 )
      Ez  (        0.00000        0.00000        3.66976 )
           atom      2   S  
      Ex  (       -3.78466        0.00000        0.00000 )
      Ey  (        0.00000       -3.78466        0.00000 )
      Ez  (        0.00000        0.00000       -3.78466 )

          Effective charges (d P / du) in cartesian axis 

           atom      1   Pb 
      Px  (        3.81415        0.00000        0.00000 )
      Py  (        0.00000        3.81415        0.00000 )
      Pz  (        0.00000        0.00000        3.81415 )
           atom      2   S  
      Px  (       -3.82026        0.00000        0.00000 )
      Py  (        0.00000       -3.82026        0.00000 )
      Pz  (        0.00000        0.00000       -3.82026 )

     Diagonalizing the dynamical matrix

     q = (    0.000000000   0.000000000   0.000000000 ) 

 **************************************************************************
     omega( 1) =      -0.217930 [THz] =      -7.269369 [cm-1]
     omega( 2) =      -0.217930 [THz] =      -7.269369 [cm-1]
     omega( 3) =      -0.217930 [THz] =      -7.269369 [cm-1]
     omega( 4) =       1.978742 [THz] =      66.003718 [cm-1]
     omega( 5) =       1.978742 [THz] =      66.003718 [cm-1]
     omega( 6) =       1.978742 [THz] =      66.003718 [cm-1]
 **************************************************************************

     Mode symmetry, O_h (m-3m)  point group:

     omega(  1 -  3) =         -7.3  [cm-1]   --> T_1u G_15  G_4- I  
     omega(  4 -  6) =         66.0  [cm-1]   --> T_1u G_15  G_4- I  

 **************************************************************************

     Calculation of q =    0.2515690   0.2515690  -0.2515690
 
     Parallelization info
     --------------------
     sticks:   dense  smooth     PW     G-vecs:    dense   smooth      PW
     Min         213      70     22                 7158     1370     236
     Max         214      71     23                 7162     1384     239
     Sum        2563     847    265                85923    16529    2837
 


     bravais-lattice index     =            0
     lattice parameter (alat)  =      11.2163  a.u.
     unit-cell volume          =     346.2077 (a.u.)^3
     number of atoms/cell      =            2
     number of atomic types    =            2
     number of electrons       =        20.00
     number of Kohn-Sham states=           10
     kinetic-energy cutoff     =      50.0000  Ry
     charge density cutoff     =     600.0000  Ry
     Exchange-correlation      = PBESOL ( 1 410 8 0)
     EXX-fraction              =        0.00

     celldm(1)=  11.216293  celldm(2)=   0.000000  celldm(3)=   0.000000
     celldm(4)=   0.000000  celldm(5)=   0.000000  celldm(6)=   0.000000

     crystal axes: (cart. coord. in units of alat)
               a(1) = (   0.000000   0.496882   0.496882 )  
               a(2) = (   0.496882   0.000000   0.496882 )  
               a(3) = (   0.496882   0.496882   0.000000 )  

     reciprocal axes: (cart. coord. in units 2 pi/alat)
               b(1) = ( -1.006276  1.006276  1.006276 )  
               b(2) = (  1.006276 -1.006276  1.006276 )  
               b(3) = (  1.006276  1.006276 -1.006276 )  


     PseudoPot. # 1 for Pb read from file:
     /work/02599/asmiller/pseudo/gbrv/pbe_GBRV/pb_pbe_v1.uspp.F.UPF
     MD5 check sum: a5f44a0c8587cfbb5a05efeead6b9227
     Pseudo is Ultrasoft + core correction, Zval = 14.0
     Generated by new atomic code, or converted to UPF format
     Using radial grid of  899 points,  6 beta functions with: 
                l(1) =   0
                l(2) =   0
                l(3) =   1
                l(4) =   1
                l(5) =   2
                l(6) =   2
     Q(r) pseudized with  6 coefficients,  rinner =    1.000   1.000   1.000
                                                       1.000   1.000

     PseudoPot. # 2 for S  read from file:
     /work/02599/asmiller/pseudo/gbrv/pbe_GBRV/s_pbe_v1.2.uspp.F.UPF
     MD5 check sum: 18038e556f4a7980c01aa0ca135f6653
     Pseudo is Ultrasoft + core correction, Zval =  6.0
     Generated by new atomic code, or converted to UPF format
     Using radial grid of  907 points,  6 beta functions with: 
                l(1) =   0
                l(2) =   0
                l(3) =   1
                l(4) =   1
                l(5) =   2
                l(6) =   2
     Q(r) pseudized with  8 coefficients,  rinner =    1.300   1.300   1.300
                                                       1.300   1.300

     atomic species   valence    mass     pseudopotential
        Pb            14.00   207.20000     Pb( 1.00)
        S              6.00    32.06000     S ( 1.00)

     48 Sym. Ops., with inversion, found



   Cartesian axes

     site n.     atom                  positions (alat units)
         1           Pb  tau(   1) = (   0.0000000   0.0000000   0.0000000  )
         2           S   tau(   2) = (   0.4968816   0.4968816   0.4968816  )

     number of k points=   728

     Number of k-points >= 100: set verbosity='high' to print them.

     Dense  grid:    85923 G-vectors     FFT dimensions: (  64,  64,  64)

     Smooth grid:    16529 G-vectors     FFT dimensions: (  36,  36,  36)

     Largest allocated arrays     est. size (Mb)     dimensions
        Kohn-Sham Wavefunctions         0.03 Mb     (    191,   10)
        NL pseudopotentials             0.10 Mb     (    191,   36)
        Each V/rho on FFT grid          0.38 Mb     (  24576)
        Each G-vector array             0.05 Mb     (   7162)
        G-vector shells                 0.00 Mb     (    620)
     Largest temporary arrays     est. size (Mb)     dimensions
        Auxiliary wavefunctions         0.12 Mb     (    191,   40)
        Each subspace H/S matrix        0.02 Mb     (  40,  40)
        Each <psi_i|beta_j> matrix      0.01 Mb     (     36,   10)

     The potential is recalculated from file :
     ./_ph0/PbS.save/charge-density.dat


     negative rho (up, down):  0.156E-01 0.000E+00
     Starting wfc are   13 atomic wfcs

     total cpu time spent up to now is        0.6 secs

     per-process dynamical memory:    58.2 Mb

     Band Structure Calculation
     Davidson diagonalization with overlap

     ethr =  5.00E-11,  avg # of iterations = 28.9

     total cpu time spent up to now is       44.0 secs

     End of band structure calculation

     Number of k-points >= 100: set verbosity='high' to print the bands.

     Writing output data file PbS.save

                                                                                

     bravais-lattice index     =            0
     lattice parameter (alat)  =      11.2163  a.u.
     unit-cell volume          =     346.2077 (a.u.)^3
     number of atoms/cell      =            2
     number of atomic types    =            2
     kinetic-energy cut-off    =      50.0000  Ry
     charge density cut-off    =     600.0000  Ry
     convergence threshold     =      1.0E-16
     beta                      =       0.7000
     number of iterations used =            4
     Exchange-correlation      = PBESOL ( 1 410 8 0)
     EXX-fraction              =        0.00


     celldm(1)=   11.21629  celldm(2)=    0.00000  celldm(3)=    0.00000
     celldm(4)=    0.00000  celldm(5)=    0.00000  celldm(6)=    0.00000

     crystal axes: (cart. coord. in units of alat)
               a(1) = (  0.0000  0.4969  0.4969 )  
               a(2) = (  0.4969  0.0000  0.4969 )  
               a(3) = (  0.4969  0.4969  0.0000 )  

     reciprocal axes: (cart. coord. in units 2 pi/alat)
               b(1) = ( -1.0063  1.0063  1.0063 )  
               b(2) = (  1.0063 -1.0063  1.0063 )  
               b(3) = (  1.0063  1.0063 -1.0063 )  


     Atoms inside the unit cell: 

   Cartesian axes

     site n.  atom      mass           positions (alat units)
        1        Pb 207.2000   tau( 1) = (    0.00000    0.00000    0.00000  )
        2        S   32.0600   tau( 2) = (    0.49688    0.49688    0.49688  )

     Computing dynamical matrix for 
                    q = (   0.2515690   0.2515690  -0.2515690 )
 
      6 Sym.Ops. (no q -> -q+G )


     G cutoff = 1912.0101  (   7162 G-vectors)     FFT grid: ( 64, 64, 64)
     G cutoff =  637.3367  (   1379 G-vectors)  smooth grid: ( 36, 36, 36)
     number of k points=   728

     PseudoPot. # 1 for Pb read from file:
     /work/02599/asmiller/pseudo/gbrv/pbe_GBRV/pb_pbe_v1.uspp.F.UPF
     MD5 check sum: a5f44a0c8587cfbb5a05efeead6b9227
     Pseudo is Ultrasoft + core correction, Zval = 14.0
     Generated by new atomic code, or converted to UPF format
     Using radial grid of  899 points,  6 beta functions with: 
                l(1) =   0
                l(2) =   0
                l(3) =   1
                l(4) =   1
                l(5) =   2
                l(6) =   2
     Q(r) pseudized with  6 coefficients,  rinner =    1.000   1.000   1.000
                                                       1.000   1.000

     PseudoPot. # 2 for S  read from file:
     /work/02599/asmiller/pseudo/gbrv/pbe_GBRV/s_pbe_v1.2.uspp.F.UPF
     MD5 check sum: 18038e556f4a7980c01aa0ca135f6653
     Pseudo is Ultrasoft + core correction, Zval =  6.0
     Generated by new atomic code, or converted to UPF format
     Using radial grid of  907 points,  6 beta functions with: 
                l(1) =   0
                l(2) =   0
                l(3) =   1
                l(4) =   1
                l(5) =   2
                l(6) =   2
     Q(r) pseudized with  8 coefficients,  rinner =    1.300   1.300   1.300
                                                       1.300   1.300


     Atomic displacements:
     There are   4 irreducible representations

     Representation     1      1 modes -A_1  L_1 To be done

     Representation     2      1 modes -A_1  L_1 To be done

     Representation     3      2 modes -E    L_3 To be done

     Representation     4      2 modes -E    L_3 To be done



     Alpha used in Ewald sum =   2.8000

     negative rho (up, down):  0.156E-01 0.000E+00
     PHONON       :  4m49.29s CPU     4m59.06s WALL



     Representation #  1 mode #   1

     Self-consistent Calculation

      iter #   1 total cpu time :   306.6 secs   av.it.:   6.5
      thresh= 0.100E-01 alpha_mix =  0.700 |ddv_scf|^2 =  0.192E-03

      iter #   2 total cpu time :   320.6 secs   av.it.:  14.3
      thresh= 0.139E-02 alpha_mix =  0.700 |ddv_scf|^2 =  0.546E-02

      iter #   3 total cpu time :   331.3 secs   av.it.:  10.4
      thresh= 0.739E-02 alpha_mix =  0.700 |ddv_scf|^2 =  0.721E-06

      iter #   4 total cpu time :   346.5 secs   av.it.:  15.7
      thresh= 0.849E-04 alpha_mix =  0.700 |ddv_scf|^2 =  0.419E-06

      iter #   5 total cpu time :   359.9 secs   av.it.:  13.6
      thresh= 0.647E-04 alpha_mix =  0.700 |ddv_scf|^2 =  0.136E-08

      iter #   6 total cpu time :   375.3 secs   av.it.:  15.9
      thresh= 0.369E-05 alpha_mix =  0.700 |ddv_scf|^2 =  0.249E-09

      iter #   7 total cpu time :   388.4 secs   av.it.:  13.3
      thresh= 0.158E-05 alpha_mix =  0.700 |ddv_scf|^2 =  0.785E-11

      iter #   8 total cpu time :   402.7 secs   av.it.:  14.6
      thresh= 0.280E-06 alpha_mix =  0.700 |ddv_scf|^2 =  0.538E-11

      iter #   9 total cpu time :   416.0 secs   av.it.:  13.5
      thresh= 0.232E-06 alpha_mix =  0.700 |ddv_scf|^2 =  0.133E-10

      iter #  10 total cpu time :   429.0 secs   av.it.:  13.1
      thresh= 0.365E-06 alpha_mix =  0.700 |ddv_scf|^2 =  0.288E-13

      iter #  11 total cpu time :   443.9 secs   av.it.:  15.2
      thresh= 0.170E-07 alpha_mix =  0.700 |ddv_scf|^2 =  0.100E-13

      iter #  12 total cpu time :   458.0 secs   av.it.:  14.3
      thresh= 0.100E-07 alpha_mix =  0.700 |ddv_scf|^2 =  0.258E-15

      iter #  13 total cpu time :   473.4 secs   av.it.:  15.9
      thresh= 0.161E-08 alpha_mix =  0.700 |ddv_scf|^2 =  0.440E-16

     End of self-consistent calculation

     Convergence has been achieved 


     Representation #  2 mode #   2

     Self-consistent Calculation

      iter #   1 total cpu time :   484.2 secs   av.it.:   9.8
      thresh= 0.100E-01 alpha_mix =  0.700 |ddv_scf|^2 =  0.104E-02

      iter #   2 total cpu time :   498.1 secs   av.it.:  14.2
      thresh= 0.323E-02 alpha_mix =  0.700 |ddv_scf|^2 =  0.308E-01

      iter #   3 total cpu time :   509.9 secs   av.it.:  11.4
      thresh= 0.100E-01 alpha_mix =  0.700 |ddv_scf|^2 =  0.294E-05

      iter #   4 total cpu time :   525.0 secs   av.it.:  15.5
      thresh= 0.171E-03 alpha_mix =  0.700 |ddv_scf|^2 =  0.299E-06

      iter #   5 total cpu time :   539.8 secs   av.it.:  15.3
      thresh= 0.547E-04 alpha_mix =  0.700 |ddv_scf|^2 =  0.627E-07

      iter #   6 total cpu time :   552.9 secs   av.it.:  13.2
      thresh= 0.250E-04 alpha_mix =  0.700 |ddv_scf|^2 =  0.268E-09

      iter #   7 total cpu time :   567.6 secs   av.it.:  15.0
      thresh= 0.164E-05 alpha_mix =  0.700 |ddv_scf|^2 =  0.121E-09

      iter #   8 total cpu time :   580.8 secs   av.it.:  13.4
      thresh= 0.110E-05 alpha_mix =  0.700 |ddv_scf|^2 =  0.239E-11

      iter #   9 total cpu time :   595.4 secs   av.it.:  15.0
      thresh= 0.154E-06 alpha_mix =  0.700 |ddv_scf|^2 =  0.462E-10

      iter #  10 total cpu time :   606.8 secs   av.it.:  11.2
      thresh= 0.680E-06 alpha_mix =  0.700 |ddv_scf|^2 =  0.789E-13

      iter #  11 total cpu time :   621.0 secs   av.it.:  14.5
      thresh= 0.281E-07 alpha_mix =  0.700 |ddv_scf|^2 =  0.675E-14

      iter #  12 total cpu time :   635.1 secs   av.it.:  14.5
      thresh= 0.822E-08 alpha_mix =  0.700 |ddv_scf|^2 =  0.257E-15

      iter #  13 total cpu time :   649.8 secs   av.it.:  15.0
      thresh= 0.160E-08 alpha_mix =  0.700 |ddv_scf|^2 =  0.291E-16

     End of self-consistent calculation

     Convergence has been achieved 


     Representation #  3 modes #   3  4

     Self-consistent Calculation

      iter #   1 total cpu time :   663.2 secs   av.it.:   5.3
      thresh= 0.100E-01 alpha_mix =  0.700 |ddv_scf|^2 =  0.906E-07

      iter #   2 total cpu time :   695.6 secs   av.it.:  17.3
      thresh= 0.301E-04 alpha_mix =  0.700 |ddv_scf|^2 =  0.168E-07

      iter #   3 total cpu time :   727.8 secs   av.it.:  17.1
      thresh= 0.130E-04 alpha_mix =  0.700 |ddv_scf|^2 =  0.309E-09

      iter #   4 total cpu time :   761.0 secs   av.it.:  17.8
      thresh= 0.176E-05 alpha_mix =  0.700 |ddv_scf|^2 =  0.356E-10

      iter #   5 total cpu time :   793.9 secs   av.it.:  17.5
      thresh= 0.597E-06 alpha_mix =  0.700 |ddv_scf|^2 =  0.130E-12

      iter #   6 total cpu time :   826.2 secs   av.it.:  17.2
      thresh= 0.361E-07 alpha_mix =  0.700 |ddv_scf|^2 =  0.919E-15

      iter #   7 total cpu time :   859.4 secs   av.it.:  17.7
      thresh= 0.303E-08 alpha_mix =  0.700 |ddv_scf|^2 =  0.180E-16

     End of self-consistent calculation

     Convergence has been achieved 


     Representation #  4 modes #   5  6

     Self-consistent Calculation

      iter #   1 total cpu time :   878.8 secs   av.it.:   8.7
      thresh= 0.100E-01 alpha_mix =  0.700 |ddv_scf|^2 =  0.103E-05

      iter #   2 total cpu time :   912.7 secs   av.it.:  18.0
      thresh= 0.101E-03 alpha_mix =  0.700 |ddv_scf|^2 =  0.330E-06

      iter #   3 total cpu time :   945.6 secs   av.it.:  17.5
      thresh= 0.574E-04 alpha_mix =  0.700 |ddv_scf|^2 =  0.474E-09

      iter #   4 total cpu time :   979.5 secs   av.it.:  18.1
      thresh= 0.218E-05 alpha_mix =  0.700 |ddv_scf|^2 =  0.371E-10

      iter #   5 total cpu time :  1013.4 secs   av.it.:  18.2
      thresh= 0.609E-06 alpha_mix =  0.700 |ddv_scf|^2 =  0.120E-11

      iter #   6 total cpu time :  1046.0 secs   av.it.:  17.3
      thresh= 0.110E-06 alpha_mix =  0.700 |ddv_scf|^2 =  0.385E-14

      iter #   7 total cpu time :  1078.8 secs   av.it.:  17.0
      thresh= 0.621E-08 alpha_mix =  0.700 |ddv_scf|^2 =  0.230E-15

      iter #   8 total cpu time :  1111.3 secs   av.it.:  17.2
      thresh= 0.152E-08 alpha_mix =  0.700 |ddv_scf|^2 =  0.316E-17

     End of self-consistent calculation

     Convergence has been achieved 
 
     Number of q in the star =    8
     List of q in the star:
          1   0.251568987   0.251568987  -0.251568987
          2  -0.251568987  -0.251568987  -0.251568987
          3   0.251568987  -0.251568987  -0.251568987
          4  -0.251568987  -0.251568987   0.251568987
          5  -0.251568987   0.251568987  -0.251568987
          6   0.251568987   0.251568987   0.251568987
          7  -0.251568987   0.251568987   0.251568987
          8   0.251568987  -0.251568987   0.251568987

     Diagonalizing the dynamical matrix

     q = (    0.251568987   0.251568987  -0.251568987 ) 

 **************************************************************************
     omega( 1) =       1.161206 [THz] =      38.733677 [cm-1]
     omega( 2) =       1.161206 [THz] =      38.733677 [cm-1]
     omega( 3) =       2.174197 [THz] =      72.523406 [cm-1]
     omega( 4) =       4.939323 [THz] =     164.758091 [cm-1]
     omega( 5) =       4.939323 [THz] =     164.758091 [cm-1]
     omega( 6) =       6.906043 [THz] =     230.360804 [cm-1]
 **************************************************************************

     Mode symmetry, C_3v (3m)   point group:

     omega(  1 -  2) =         38.7  [cm-1]   --> E    L_3           
     omega(  3 -  3) =         72.5  [cm-1]   --> A_1  L_1           
     omega(  4 -  5) =        164.8  [cm-1]   --> E    L_3           
     omega(  6 -  6) =        230.4  [cm-1]   --> A_1  L_1           

 **************************************************************************

     Calculation of q =   -0.5031380  -0.5031380   0.5031380
 
     Parallelization info
     --------------------
     sticks:   dense  smooth     PW     G-vecs:    dense   smooth      PW
     Min         213      70     24                 7158     1368     273
     Max         214      71     25                 7162     1391     275
     Sum        2563     847    295                85923    16529    3287
 


     bravais-lattice index     =            0
     lattice parameter (alat)  =      11.2163  a.u.
     unit-cell volume          =     346.2077 (a.u.)^3
     number of atoms/cell      =            2
     number of atomic types    =            2
     number of electrons       =        20.00
     number of Kohn-Sham states=           10
     kinetic-energy cutoff     =      50.0000  Ry
     charge density cutoff     =     600.0000  Ry
     Exchange-correlation      = PBESOL ( 1 410 8 0)
     EXX-fraction              =        0.00

     celldm(1)=  11.216293  celldm(2)=   0.000000  celldm(3)=   0.000000
     celldm(4)=   0.000000  celldm(5)=   0.000000  celldm(6)=   0.000000

     crystal axes: (cart. coord. in units of alat)
               a(1) = (   0.000000   0.496882   0.496882 )  
               a(2) = (   0.496882   0.000000   0.496882 )  
               a(3) = (   0.496882   0.496882   0.000000 )  

     reciprocal axes: (cart. coord. in units 2 pi/alat)
               b(1) = ( -1.006276  1.006276  1.006276 )  
               b(2) = (  1.006276 -1.006276  1.006276 )  
               b(3) = (  1.006276  1.006276 -1.006276 )  


     PseudoPot. # 1 for Pb read from file:
     /work/02599/asmiller/pseudo/gbrv/pbe_GBRV/pb_pbe_v1.uspp.F.UPF
     MD5 check sum: a5f44a0c8587cfbb5a05efeead6b9227
     Pseudo is Ultrasoft + core correction, Zval = 14.0
     Generated by new atomic code, or converted to UPF format
     Using radial grid of  899 points,  6 beta functions with: 
                l(1) =   0
                l(2) =   0
                l(3) =   1
                l(4) =   1
                l(5) =   2
                l(6) =   2
     Q(r) pseudized with  6 coefficients,  rinner =    1.000   1.000   1.000
                                                       1.000   1.000

     PseudoPot. # 2 for S  read from file:
     /work/02599/asmiller/pseudo/gbrv/pbe_GBRV/s_pbe_v1.2.uspp.F.UPF
     MD5 check sum: 18038e556f4a7980c01aa0ca135f6653
     Pseudo is Ultrasoft + core correction, Zval =  6.0
     Generated by new atomic code, or converted to UPF format
     Using radial grid of  907 points,  6 beta functions with: 
                l(1) =   0
                l(2) =   0
                l(3) =   1
                l(4) =   1
                l(5) =   2
                l(6) =   2
     Q(r) pseudized with  8 coefficients,  rinner =    1.300   1.300   1.300
                                                       1.300   1.300

     atomic species   valence    mass     pseudopotential
        Pb            14.00   207.20000     Pb( 1.00)
        S              6.00    32.06000     S ( 1.00)

     48 Sym. Ops., with inversion, found



   Cartesian axes

     site n.     atom                  positions (alat units)
         1           Pb  tau(   1) = (   0.0000000   0.0000000   0.0000000  )
         2           S   tau(   2) = (   0.4968816   0.4968816   0.4968816  )

     number of k points=   378

     Number of k-points >= 100: set verbosity='high' to print them.

     Dense  grid:    85923 G-vectors     FFT dimensions: (  64,  64,  64)

     Smooth grid:    16529 G-vectors     FFT dimensions: (  36,  36,  36)

     Largest allocated arrays     est. size (Mb)     dimensions
        Kohn-Sham Wavefunctions         0.03 Mb     (    187,   10)
        NL pseudopotentials             0.10 Mb     (    187,   36)
        Each V/rho on FFT grid          0.38 Mb     (  24576)
        Each G-vector array             0.05 Mb     (   7162)
        G-vector shells                 0.00 Mb     (    623)
     Largest temporary arrays     est. size (Mb)     dimensions
        Auxiliary wavefunctions         0.11 Mb     (    187,   40)
        Each subspace H/S matrix        0.02 Mb     (  40,  40)
        Each <psi_i|beta_j> matrix      0.01 Mb     (     36,   10)

     The potential is recalculated from file :
     ./_ph0/PbS.save/charge-density.dat


     negative rho (up, down):  0.156E-01 0.000E+00
     Starting wfc are   13 atomic wfcs

     total cpu time spent up to now is       45.8 secs

     per-process dynamical memory:    67.7 Mb

     Band Structure Calculation
     Davidson diagonalization with overlap

     ethr =  5.00E-11,  avg # of iterations = 28.6

     total cpu time spent up to now is       68.5 secs

     End of band structure calculation

     Number of k-points >= 100: set verbosity='high' to print the bands.

     Writing output data file PbS.save

                                                                                

     bravais-lattice index     =            0
     lattice parameter (alat)  =      11.2163  a.u.
     unit-cell volume          =     346.2077 (a.u.)^3
     number of atoms/cell      =            2
     number of atomic types    =            2
     kinetic-energy cut-off    =      50.0000  Ry
     charge density cut-off    =     600.0000  Ry
     convergence threshold     =      1.0E-16
     beta                      =       0.7000
     number of iterations used =            4
     Exchange-correlation      = PBESOL ( 1 410 8 0)
     EXX-fraction              =        0.00


     celldm(1)=   11.21629  celldm(2)=    0.00000  celldm(3)=    0.00000
     celldm(4)=    0.00000  celldm(5)=    0.00000  celldm(6)=    0.00000

     crystal axes: (cart. coord. in units of alat)
               a(1) = (  0.0000  0.4969  0.4969 )  
               a(2) = (  0.4969  0.0000  0.4969 )  
               a(3) = (  0.4969  0.4969  0.0000 )  

     reciprocal axes: (cart. coord. in units 2 pi/alat)
               b(1) = ( -1.0063  1.0063  1.0063 )  
               b(2) = (  1.0063 -1.0063  1.0063 )  
               b(3) = (  1.0063  1.0063 -1.0063 )  


     Atoms inside the unit cell: 

   Cartesian axes

     site n.  atom      mass           positions (alat units)
        1        Pb 207.2000   tau( 1) = (    0.00000    0.00000    0.00000  )
        2        S   32.0600   tau( 2) = (    0.49688    0.49688    0.49688  )

     Computing dynamical matrix for 
                    q = (  -0.5031380  -0.5031380   0.5031380 )
 
     13 Sym.Ops. (with q -> -q+G )


     G cutoff = 1912.0101  (   7162 G-vectors)     FFT grid: ( 64, 64, 64)
     G cutoff =  637.3367  (   1382 G-vectors)  smooth grid: ( 36, 36, 36)
     number of k points=   378

     PseudoPot. # 1 for Pb read from file:
     /work/02599/asmiller/pseudo/gbrv/pbe_GBRV/pb_pbe_v1.uspp.F.UPF
     MD5 check sum: a5f44a0c8587cfbb5a05efeead6b9227
     Pseudo is Ultrasoft + core correction, Zval = 14.0
     Generated by new atomic code, or converted to UPF format
     Using radial grid of  899 points,  6 beta functions with: 
                l(1) =   0
                l(2) =   0
                l(3) =   1
                l(4) =   1
                l(5) =   2
                l(6) =   2
     Q(r) pseudized with  6 coefficients,  rinner =    1.000   1.000   1.000
                                                       1.000   1.000

     PseudoPot. # 2 for S  read from file:
     /work/02599/asmiller/pseudo/gbrv/pbe_GBRV/s_pbe_v1.2.uspp.F.UPF
     MD5 check sum: 18038e556f4a7980c01aa0ca135f6653
     Pseudo is Ultrasoft + core correction, Zval =  6.0
     Generated by new atomic code, or converted to UPF format
     Using radial grid of  907 points,  6 beta functions with: 
                l(1) =   0
                l(2) =   0
                l(3) =   1
                l(4) =   1
                l(5) =   2
                l(6) =   2
     Q(r) pseudized with  8 coefficients,  rinner =    1.300   1.300   1.300
                                                       1.300   1.300


     Atomic displacements:
     There are   4 irreducible representations

     Representation     1      1 modes -A_1g L_1 To be done

     Representation     2      2 modes -E_g  L_3 To be done

     Representation     3      1 modes -A_2u L_2' To be done

     Representation     4      2 modes -E_u  L_3' To be done



     Alpha used in Ewald sum =   2.8000

     negative rho (up, down):  0.156E-01 0.000E+00
     PHONON       : 18m35.32s CPU    19m 0.12s WALL



     Representation #  1 mode #   1

     Self-consistent Calculation

      iter #   1 total cpu time :  1143.7 secs   av.it.:   5.0
      thresh= 0.100E-01 alpha_mix =  0.700 |ddv_scf|^2 =  0.131E-04

      iter #   2 total cpu time :  1151.1 secs   av.it.:  14.0
      thresh= 0.362E-03 alpha_mix =  0.700 |ddv_scf|^2 =  0.425E-04

      iter #   3 total cpu time :  1157.6 secs   av.it.:  12.2
      thresh= 0.652E-03 alpha_mix =  0.700 |ddv_scf|^2 =  0.331E-08

      iter #   4 total cpu time :  1165.9 secs   av.it.:  16.1
      thresh= 0.575E-05 alpha_mix =  0.700 |ddv_scf|^2 =  0.299E-09

      iter #   5 total cpu time :  1173.8 secs   av.it.:  15.3
      thresh= 0.173E-05 alpha_mix =  0.700 |ddv_scf|^2 =  0.409E-11

      iter #   6 total cpu time :  1181.4 secs   av.it.:  14.7
      thresh= 0.202E-06 alpha_mix =  0.700 |ddv_scf|^2 =  0.415E-13

      iter #   7 total cpu time :  1189.4 secs   av.it.:  15.5
      thresh= 0.204E-07 alpha_mix =  0.700 |ddv_scf|^2 =  0.177E-15

      iter #   8 total cpu time :  1197.3 secs   av.it.:  15.3
      thresh= 0.133E-08 alpha_mix =  0.700 |ddv_scf|^2 =  0.658E-16

     End of self-consistent calculation

     Convergence has been achieved 


     Representation #  2 modes #   2  3

     Self-consistent Calculation

      iter #   1 total cpu time :  1204.3 secs   av.it.:   4.9
      thresh= 0.100E-01 alpha_mix =  0.700 |ddv_scf|^2 =  0.979E-07

      iter #   2 total cpu time :  1220.7 secs   av.it.:  16.2
      thresh= 0.313E-04 alpha_mix =  0.700 |ddv_scf|^2 =  0.161E-07

      iter #   3 total cpu time :  1237.1 secs   av.it.:  16.3
      thresh= 0.127E-04 alpha_mix =  0.700 |ddv_scf|^2 =  0.166E-09

      iter #   4 total cpu time :  1253.5 secs   av.it.:  16.4
      thresh= 0.129E-05 alpha_mix =  0.700 |ddv_scf|^2 =  0.718E-12

      iter #   5 total cpu time :  1270.4 secs   av.it.:  17.0
      thresh= 0.847E-07 alpha_mix =  0.700 |ddv_scf|^2 =  0.409E-14

      iter #   6 total cpu time :  1287.7 secs   av.it.:  17.5
      thresh= 0.639E-08 alpha_mix =  0.700 |ddv_scf|^2 =  0.265E-16

     End of self-consistent calculation

     Convergence has been achieved 


     Representation #  3 mode #   4

     Self-consistent Calculation

      iter #   1 total cpu time :  1293.7 secs   av.it.:   9.8
      thresh= 0.100E-01 alpha_mix =  0.700 |ddv_scf|^2 =  0.899E-04

      iter #   2 total cpu time :  1301.5 secs   av.it.:  15.2
      thresh= 0.948E-03 alpha_mix =  0.700 |ddv_scf|^2 =  0.483E-03

      iter #   3 total cpu time :  1308.2 secs   av.it.:  12.6
      thresh= 0.220E-02 alpha_mix =  0.700 |ddv_scf|^2 =  0.942E-06

      iter #   4 total cpu time :  1315.8 secs   av.it.:  14.6
      thresh= 0.971E-04 alpha_mix =  0.700 |ddv_scf|^2 =  0.185E-07

      iter #   5 total cpu time :  1323.0 secs   av.it.:  13.8
      thresh= 0.136E-04 alpha_mix =  0.700 |ddv_scf|^2 =  0.413E-09

      iter #   6 total cpu time :  1330.6 secs   av.it.:  14.7
      thresh= 0.203E-05 alpha_mix =  0.700 |ddv_scf|^2 =  0.428E-12

      iter #   7 total cpu time :  1338.4 secs   av.it.:  15.2
      thresh= 0.654E-07 alpha_mix =  0.700 |ddv_scf|^2 =  0.129E-13

      iter #   8 total cpu time :  1345.4 secs   av.it.:  13.3
      thresh= 0.114E-07 alpha_mix =  0.700 |ddv_scf|^2 =  0.819E-15

      iter #   9 total cpu time :  1352.6 secs   av.it.:  13.8
      thresh= 0.286E-08 alpha_mix =  0.700 |ddv_scf|^2 =  0.153E-16

     End of self-consistent calculation

     Convergence has been achieved 


     Representation #  4 modes #   5  6

     Self-consistent Calculation

      iter #   1 total cpu time :  1362.6 secs   av.it.:   8.4
      thresh= 0.100E-01 alpha_mix =  0.700 |ddv_scf|^2 =  0.108E-05

      iter #   2 total cpu time :  1380.1 secs   av.it.:  17.4
      thresh= 0.104E-03 alpha_mix =  0.700 |ddv_scf|^2 =  0.340E-06

      iter #   3 total cpu time :  1396.9 secs   av.it.:  16.6
      thresh= 0.583E-04 alpha_mix =  0.700 |ddv_scf|^2 =  0.203E-09

      iter #   4 total cpu time :  1414.3 secs   av.it.:  17.6
      thresh= 0.143E-05 alpha_mix =  0.700 |ddv_scf|^2 =  0.592E-11

      iter #   5 total cpu time :  1430.8 secs   av.it.:  16.3
      thresh= 0.243E-06 alpha_mix =  0.700 |ddv_scf|^2 =  0.316E-13

      iter #   6 total cpu time :  1447.7 secs   av.it.:  16.9
      thresh= 0.178E-07 alpha_mix =  0.700 |ddv_scf|^2 =  0.600E-15

      iter #   7 total cpu time :  1464.3 secs   av.it.:  16.5
      thresh= 0.245E-08 alpha_mix =  0.700 |ddv_scf|^2 =  0.463E-17

     End of self-consistent calculation

     Convergence has been achieved 
 
     Number of q in the star =    4
     List of q in the star:
          1  -0.503137974  -0.503137974   0.503137974
          2  -0.503137974  -0.503137974  -0.503137974
          3  -0.503137974   0.503137974   0.503137974
          4  -0.503137974   0.503137974  -0.503137974

     Diagonalizing the dynamical matrix

     q = (   -0.503137974  -0.503137974   0.503137974 ) 

 **************************************************************************
     omega( 1) =       1.600426 [THz] =      53.384473 [cm-1]
     omega( 2) =       1.600426 [THz] =      53.384473 [cm-1]
     omega( 3) =       3.193287 [THz] =     106.516598 [cm-1]
     omega( 4) =       5.895208 [THz] =     196.642981 [cm-1]
     omega( 5) =       5.895208 [THz] =     196.642981 [cm-1]
     omega( 6) =       6.969827 [THz] =     232.488400 [cm-1]
 **************************************************************************

     Mode symmetry, D_3d (-3m)  point group:

     omega(  1 -  2) =         53.4  [cm-1]   --> E_u  L_3'          
     omega(  3 -  3) =        106.5  [cm-1]   --> A_2u L_2'          
     omega(  4 -  5) =        196.6  [cm-1]   --> E_g  L_3           
     omega(  6 -  6) =        232.5  [cm-1]   --> A_1g L_1           

 **************************************************************************

     Calculation of q =    0.5031380   0.0000000   0.0000000
 
     Parallelization info
     --------------------
     sticks:   dense  smooth     PW     G-vecs:    dense   smooth      PW
     Min         213      70     22                 7158     1370     240
     Max         214      71     23                 7162     1382     243
     Sum        2563     847    265                85923    16529    2891
 


     bravais-lattice index     =            0
     lattice parameter (alat)  =      11.2163  a.u.
     unit-cell volume          =     346.2077 (a.u.)^3
     number of atoms/cell      =            2
     number of atomic types    =            2
     number of electrons       =        20.00
     number of Kohn-Sham states=           10
     kinetic-energy cutoff     =      50.0000  Ry
     charge density cutoff     =     600.0000  Ry
     Exchange-correlation      = PBESOL ( 1 410 8 0)
     EXX-fraction              =        0.00

     celldm(1)=  11.216293  celldm(2)=   0.000000  celldm(3)=   0.000000
     celldm(4)=   0.000000  celldm(5)=   0.000000  celldm(6)=   0.000000

     crystal axes: (cart. coord. in units of alat)
               a(1) = (   0.000000   0.496882   0.496882 )  
               a(2) = (   0.496882   0.000000   0.496882 )  
               a(3) = (   0.496882   0.496882   0.000000 )  

     reciprocal axes: (cart. coord. in units 2 pi/alat)
               b(1) = ( -1.006276  1.006276  1.006276 )  
               b(2) = (  1.006276 -1.006276  1.006276 )  
               b(3) = (  1.006276  1.006276 -1.006276 )  


     PseudoPot. # 1 for Pb read from file:
     /work/02599/asmiller/pseudo/gbrv/pbe_GBRV/pb_pbe_v1.uspp.F.UPF
     MD5 check sum: a5f44a0c8587cfbb5a05efeead6b9227
     Pseudo is Ultrasoft + core correction, Zval = 14.0
     Generated by new atomic code, or converted to UPF format
     Using radial grid of  899 points,  6 beta functions with: 
                l(1) =   0
                l(2) =   0
                l(3) =   1
                l(4) =   1
                l(5) =   2
                l(6) =   2
     Q(r) pseudized with  6 coefficients,  rinner =    1.000   1.000   1.000
                                                       1.000   1.000

     PseudoPot. # 2 for S  read from file:
     /work/02599/asmiller/pseudo/gbrv/pbe_GBRV/s_pbe_v1.2.uspp.F.UPF
     MD5 check sum: 18038e556f4a7980c01aa0ca135f6653
     Pseudo is Ultrasoft + core correction, Zval =  6.0
     Generated by new atomic code, or converted to UPF format
     Using radial grid of  907 points,  6 beta functions with: 
                l(1) =   0
                l(2) =   0
                l(3) =   1
                l(4) =   1
                l(5) =   2
                l(6) =   2
     Q(r) pseudized with  8 coefficients,  rinner =    1.300   1.300   1.300
                                                       1.300   1.300

     atomic species   valence    mass     pseudopotential
        Pb            14.00   207.20000     Pb( 1.00)
        S              6.00    32.06000     S ( 1.00)

     48 Sym. Ops., with inversion, found



   Cartesian axes

     site n.     atom                  positions (alat units)
         1           Pb  tau(   1) = (   0.0000000   0.0000000   0.0000000  )
         2           S   tau(   2) = (   0.4968816   0.4968816   0.4968816  )

     number of k points=   588

     Number of k-points >= 100: set verbosity='high' to print them.

     Dense  grid:    85923 G-vectors     FFT dimensions: (  64,  64,  64)

     Smooth grid:    16529 G-vectors     FFT dimensions: (  36,  36,  36)

     Largest allocated arrays     est. size (Mb)     dimensions
        Kohn-Sham Wavefunctions         0.03 Mb     (    190,   10)
        NL pseudopotentials             0.10 Mb     (    190,   36)
        Each V/rho on FFT grid          0.38 Mb     (  24576)
        Each G-vector array             0.05 Mb     (   7162)
        G-vector shells                 0.00 Mb     (    620)
     Largest temporary arrays     est. size (Mb)     dimensions
        Auxiliary wavefunctions         0.12 Mb     (    190,   40)
        Each subspace H/S matrix        0.02 Mb     (  40,  40)
        Each <psi_i|beta_j> matrix      0.01 Mb     (     36,   10)

     The potential is recalculated from file :
     ./_ph0/PbS.save/charge-density.dat


     negative rho (up, down):  0.156E-01 0.000E+00
     Starting wfc are   13 atomic wfcs

     total cpu time spent up to now is       69.6 secs

     per-process dynamical memory:    67.7 Mb

     Band Structure Calculation
     Davidson diagonalization with overlap

     ethr =  5.00E-11,  avg # of iterations = 28.5

     total cpu time spent up to now is      104.3 secs

     End of band structure calculation

     Number of k-points >= 100: set verbosity='high' to print the bands.

     Writing output data file PbS.save

                                                                                

     bravais-lattice index     =            0
     lattice parameter (alat)  =      11.2163  a.u.
     unit-cell volume          =     346.2077 (a.u.)^3
     number of atoms/cell      =            2
     number of atomic types    =            2
     kinetic-energy cut-off    =      50.0000  Ry
     charge density cut-off    =     600.0000  Ry
     convergence threshold     =      1.0E-16
     beta                      =       0.7000
     number of iterations used =            4
     Exchange-correlation      = PBESOL ( 1 410 8 0)
     EXX-fraction              =        0.00


     celldm(1)=   11.21629  celldm(2)=    0.00000  celldm(3)=    0.00000
     celldm(4)=    0.00000  celldm(5)=    0.00000  celldm(6)=    0.00000

     crystal axes: (cart. coord. in units of alat)
               a(1) = (  0.0000  0.4969  0.4969 )  
               a(2) = (  0.4969  0.0000  0.4969 )  
               a(3) = (  0.4969  0.4969  0.0000 )  

     reciprocal axes: (cart. coord. in units 2 pi/alat)
               b(1) = ( -1.0063  1.0063  1.0063 )  
               b(2) = (  1.0063 -1.0063  1.0063 )  
               b(3) = (  1.0063  1.0063 -1.0063 )  


     Atoms inside the unit cell: 

   Cartesian axes

     site n.  atom      mass           positions (alat units)
        1        Pb 207.2000   tau( 1) = (    0.00000    0.00000    0.00000  )
        2        S   32.0600   tau( 2) = (    0.49688    0.49688    0.49688  )

     Computing dynamical matrix for 
                    q = (   0.5031380   0.0000000   0.0000000 )
 
      8 Sym.Ops. (no q -> -q+G )


     G cutoff = 1912.0101  (   7162 G-vectors)     FFT grid: ( 64, 64, 64)
     G cutoff =  637.3367  (   1381 G-vectors)  smooth grid: ( 36, 36, 36)
     number of k points=   588

     PseudoPot. # 1 for Pb read from file:
     /work/02599/asmiller/pseudo/gbrv/pbe_GBRV/pb_pbe_v1.uspp.F.UPF
     MD5 check sum: a5f44a0c8587cfbb5a05efeead6b9227
     Pseudo is Ultrasoft + core correction, Zval = 14.0
     Generated by new atomic code, or converted to UPF format
     Using radial grid of  899 points,  6 beta functions with: 
                l(1) =   0
                l(2) =   0
                l(3) =   1
                l(4) =   1
                l(5) =   2
                l(6) =   2
     Q(r) pseudized with  6 coefficients,  rinner =    1.000   1.000   1.000
                                                       1.000   1.000

     PseudoPot. # 2 for S  read from file:
     /work/02599/asmiller/pseudo/gbrv/pbe_GBRV/s_pbe_v1.2.uspp.F.UPF
     MD5 check sum: 18038e556f4a7980c01aa0ca135f6653
     Pseudo is Ultrasoft + core correction, Zval =  6.0
     Generated by new atomic code, or converted to UPF format
     Using radial grid of  907 points,  6 beta functions with: 
                l(1) =   0
                l(2) =   0
                l(3) =   1
                l(4) =   1
                l(5) =   2
                l(6) =   2
     Q(r) pseudized with  8 coefficients,  rinner =    1.300   1.300   1.300
                                                       1.300   1.300


     Atomic displacements:
     There are   4 irreducible representations

     Representation     1      1 modes -A_1  G_1 D_1 To be done

     Representation     2      1 modes -A_1  G_1 D_1 To be done

     Representation     3      2 modes -E    G_5 D_5 To be done

     Representation     4      2 modes -E    G_5 D_5 To be done



     Alpha used in Ewald sum =   2.8000

     negative rho (up, down):  0.156E-01 0.000E+00
     PHONON       : 24m32.18s CPU    25m 5.61s WALL



     Representation #  1 mode #   1

     Self-consistent Calculation

      iter #   1 total cpu time :  1512.0 secs   av.it.:   6.8
      thresh= 0.100E-01 alpha_mix =  0.700 |ddv_scf|^2 =  0.667E-04

      iter #   2 total cpu time :  1523.1 secs   av.it.:  13.9
      thresh= 0.817E-03 alpha_mix =  0.700 |ddv_scf|^2 =  0.722E-03

      iter #   3 total cpu time :  1532.2 secs   av.it.:  10.9
      thresh= 0.269E-02 alpha_mix =  0.700 |ddv_scf|^2 =  0.125E-06

      iter #   4 total cpu time :  1544.2 secs   av.it.:  15.3
      thresh= 0.353E-04 alpha_mix =  0.700 |ddv_scf|^2 =  0.567E-07

      iter #   5 total cpu time :  1554.9 secs   av.it.:  13.3
      thresh= 0.238E-04 alpha_mix =  0.700 |ddv_scf|^2 =  0.168E-09

      iter #   6 total cpu time :  1567.4 secs   av.it.:  16.0
      thresh= 0.130E-05 alpha_mix =  0.700 |ddv_scf|^2 =  0.122E-10

      iter #   7 total cpu time :  1579.8 secs   av.it.:  15.8
      thresh= 0.349E-06 alpha_mix =  0.700 |ddv_scf|^2 =  0.617E-11

      iter #   8 total cpu time :  1591.0 secs   av.it.:  14.0
      thresh= 0.248E-06 alpha_mix =  0.700 |ddv_scf|^2 =  0.935E-13

      iter #   9 total cpu time :  1602.9 secs   av.it.:  15.1
      thresh= 0.306E-07 alpha_mix =  0.700 |ddv_scf|^2 =  0.564E-15

      iter #  10 total cpu time :  1615.3 secs   av.it.:  15.8
      thresh= 0.237E-08 alpha_mix =  0.700 |ddv_scf|^2 =  0.421E-16

     End of self-consistent calculation

     Convergence has been achieved 


     Representation #  2 mode #   2

     Self-consistent Calculation

      iter #   1 total cpu time :  1623.5 secs   av.it.:   9.1
      thresh= 0.100E-01 alpha_mix =  0.700 |ddv_scf|^2 =  0.368E-03

      iter #   2 total cpu time :  1634.5 secs   av.it.:  14.0
      thresh= 0.192E-02 alpha_mix =  0.700 |ddv_scf|^2 =  0.421E-02

      iter #   3 total cpu time :  1643.6 secs   av.it.:  10.8
      thresh= 0.649E-02 alpha_mix =  0.700 |ddv_scf|^2 =  0.159E-05

      iter #   4 total cpu time :  1655.1 secs   av.it.:  14.7
      thresh= 0.126E-03 alpha_mix =  0.700 |ddv_scf|^2 =  0.176E-07

      iter #   5 total cpu time :  1667.3 secs   av.it.:  15.5
      thresh= 0.133E-04 alpha_mix =  0.700 |ddv_scf|^2 =  0.598E-08

      iter #   6 total cpu time :  1678.9 secs   av.it.:  14.8
      thresh= 0.774E-05 alpha_mix =  0.700 |ddv_scf|^2 =  0.186E-09

      iter #   7 total cpu time :  1690.5 secs   av.it.:  14.5
      thresh= 0.136E-05 alpha_mix =  0.700 |ddv_scf|^2 =  0.125E-11

      iter #   8 total cpu time :  1702.5 secs   av.it.:  15.3
      thresh= 0.112E-06 alpha_mix =  0.700 |ddv_scf|^2 =  0.364E-12

      iter #   9 total cpu time :  1713.7 secs   av.it.:  14.0
      thresh= 0.604E-07 alpha_mix =  0.700 |ddv_scf|^2 =  0.324E-13

      iter #  10 total cpu time :  1724.8 secs   av.it.:  14.0
      thresh= 0.180E-07 alpha_mix =  0.700 |ddv_scf|^2 =  0.639E-15

      iter #  11 total cpu time :  1736.9 secs   av.it.:  15.4
      thresh= 0.253E-08 alpha_mix =  0.700 |ddv_scf|^2 =  0.435E-15

      iter #  12 total cpu time :  1748.4 secs   av.it.:  14.4
      thresh= 0.209E-08 alpha_mix =  0.700 |ddv_scf|^2 =  0.807E-16

     End of self-consistent calculation

     Convergence has been achieved 


     Representation #  3 modes #   3  4

     Self-consistent Calculation

      iter #   1 total cpu time :  1760.1 secs   av.it.:   6.0
      thresh= 0.100E-01 alpha_mix =  0.700 |ddv_scf|^2 =  0.132E-06

      iter #   2 total cpu time :  1785.7 secs   av.it.:  16.6
      thresh= 0.363E-04 alpha_mix =  0.700 |ddv_scf|^2 =  0.449E-07

      iter #   3 total cpu time :  1810.6 secs   av.it.:  16.1
      thresh= 0.212E-04 alpha_mix =  0.700 |ddv_scf|^2 =  0.482E-09

      iter #   4 total cpu time :  1836.1 secs   av.it.:  16.6
      thresh= 0.219E-05 alpha_mix =  0.700 |ddv_scf|^2 =  0.288E-10

      iter #   5 total cpu time :  1861.6 secs   av.it.:  16.6
      thresh= 0.537E-06 alpha_mix =  0.700 |ddv_scf|^2 =  0.208E-12

      iter #   6 total cpu time :  1886.0 secs   av.it.:  15.7
      thresh= 0.456E-07 alpha_mix =  0.700 |ddv_scf|^2 =  0.822E-15

      iter #   7 total cpu time :  1911.6 secs   av.it.:  16.8
      thresh= 0.287E-08 alpha_mix =  0.700 |ddv_scf|^2 =  0.200E-16

     End of self-consistent calculation

     Convergence has been achieved 


     Representation #  4 modes #   5  6

     Self-consistent Calculation

      iter #   1 total cpu time :  1927.1 secs   av.it.:   8.5
      thresh= 0.100E-01 alpha_mix =  0.700 |ddv_scf|^2 =  0.135E-05

      iter #   2 total cpu time :  1954.0 secs   av.it.:  17.6
      thresh= 0.116E-03 alpha_mix =  0.700 |ddv_scf|^2 =  0.620E-06

      iter #   3 total cpu time :  1979.8 secs   av.it.:  16.8
      thresh= 0.788E-04 alpha_mix =  0.700 |ddv_scf|^2 =  0.754E-09

      iter #   4 total cpu time :  2007.0 secs   av.it.:  17.6
      thresh= 0.275E-05 alpha_mix =  0.700 |ddv_scf|^2 =  0.378E-10

      iter #   5 total cpu time :  2034.0 secs   av.it.:  17.7
      thresh= 0.615E-06 alpha_mix =  0.700 |ddv_scf|^2 =  0.159E-11

      iter #   6 total cpu time :  2059.7 secs   av.it.:  16.8
      thresh= 0.126E-06 alpha_mix =  0.700 |ddv_scf|^2 =  0.487E-14

      iter #   7 total cpu time :  2085.5 secs   av.it.:  16.8
      thresh= 0.698E-08 alpha_mix =  0.700 |ddv_scf|^2 =  0.318E-15

      iter #   8 total cpu time :  2111.4 secs   av.it.:  16.9
      thresh= 0.178E-08 alpha_mix =  0.700 |ddv_scf|^2 =  0.258E-17

     End of self-consistent calculation

     Convergence has been achieved 
 
     Number of q in the star =    6
     List of q in the star:
          1   0.503137974   0.000000000   0.000000000
          2   0.000000000   0.000000000   0.503137974
          3   0.000000000  -0.503137974   0.000000000
          4   0.000000000   0.000000000  -0.503137974
          5  -0.503137974   0.000000000   0.000000000
          6   0.000000000   0.503137974   0.000000000

     Diagonalizing the dynamical matrix

     q = (    0.503137974   0.000000000   0.000000000 ) 

 **************************************************************************
     omega( 1) =       0.975305 [THz] =      32.532664 [cm-1]
     omega( 2) =       0.975305 [THz] =      32.532664 [cm-1]
     omega( 3) =       2.415938 [THz] =      80.587011 [cm-1]
     omega( 4) =       3.121726 [THz] =     104.129568 [cm-1]
     omega( 5) =       3.121726 [THz] =     104.129568 [cm-1]
     omega( 6) =       6.323515 [THz] =     210.929769 [cm-1]
 **************************************************************************

     Mode symmetry, C_4v (4mm)  point group:

     omega(  1 -  2) =         32.5  [cm-1]   --> E    G_5 D_5       
     omega(  3 -  3) =         80.6  [cm-1]   --> A_1  G_1 D_1       
     omega(  4 -  5) =        104.1  [cm-1]   --> E    G_5 D_5       
     omega(  6 -  6) =        210.9  [cm-1]   --> A_1  G_1 D_1       

 **************************************************************************

     Calculation of q =   -0.2515690  -0.7547070   0.7547070
 
     Parallelization info
     --------------------
     sticks:   dense  smooth     PW     G-vecs:    dense   smooth      PW
     Min         213      70     25                 7158     1371     289
     Max         214      71     26                 7162     1385     292
     Sum        2563     847    301                85923    16529    3479
 


     bravais-lattice index     =            0
     lattice parameter (alat)  =      11.2163  a.u.
     unit-cell volume          =     346.2077 (a.u.)^3
     number of atoms/cell      =            2
     number of atomic types    =            2
     number of electrons       =        20.00
     number of Kohn-Sham states=           10
     kinetic-energy cutoff     =      50.0000  Ry
     charge density cutoff     =     600.0000  Ry
     Exchange-correlation      = PBESOL ( 1 410 8 0)
     EXX-fraction              =        0.00

     celldm(1)=  11.216293  celldm(2)=   0.000000  celldm(3)=   0.000000
     celldm(4)=   0.000000  celldm(5)=   0.000000  celldm(6)=   0.000000

     crystal axes: (cart. coord. in units of alat)
               a(1) = (   0.000000   0.496882   0.496882 )  
               a(2) = (   0.496882   0.000000   0.496882 )  
               a(3) = (   0.496882   0.496882   0.000000 )  

     reciprocal axes: (cart. coord. in units 2 pi/alat)
               b(1) = ( -1.006276  1.006276  1.006276 )  
               b(2) = (  1.006276 -1.006276  1.006276 )  
               b(3) = (  1.006276  1.006276 -1.006276 )  


     PseudoPot. # 1 for Pb read from file:
     /work/02599/asmiller/pseudo/gbrv/pbe_GBRV/pb_pbe_v1.uspp.F.UPF
     MD5 check sum: a5f44a0c8587cfbb5a05efeead6b9227
     Pseudo is Ultrasoft + core correction, Zval = 14.0
     Generated by new atomic code, or converted to UPF format
     Using radial grid of  899 points,  6 beta functions with: 
                l(1) =   0
                l(2) =   0
                l(3) =   1
                l(4) =   1
                l(5) =   2
                l(6) =   2
     Q(r) pseudized with  6 coefficients,  rinner =    1.000   1.000   1.000
                                                       1.000   1.000

     PseudoPot. # 2 for S  read from file:
     /work/02599/asmiller/pseudo/gbrv/pbe_GBRV/s_pbe_v1.2.uspp.F.UPF
     MD5 check sum: 18038e556f4a7980c01aa0ca135f6653
     Pseudo is Ultrasoft + core correction, Zval =  6.0
     Generated by new atomic code, or converted to UPF format
     Using radial grid of  907 points,  6 beta functions with: 
                l(1) =   0
                l(2) =   0
                l(3) =   1
                l(4) =   1
                l(5) =   2
                l(6) =   2
     Q(r) pseudized with  8 coefficients,  rinner =    1.300   1.300   1.300
                                                       1.300   1.300

     atomic species   valence    mass     pseudopotential
        Pb            14.00   207.20000     Pb( 1.00)
        S              6.00    32.06000     S ( 1.00)

     48 Sym. Ops., with inversion, found



   Cartesian axes

     site n.     atom                  positions (alat units)
         1           Pb  tau(   1) = (   0.0000000   0.0000000   0.0000000  )
         2           S   tau(   2) = (   0.4968816   0.4968816   0.4968816  )

     number of k points=  1872

     Number of k-points >= 100: set verbosity='high' to print them.

     Dense  grid:    85923 G-vectors     FFT dimensions: (  64,  64,  64)

     Smooth grid:    16529 G-vectors     FFT dimensions: (  36,  36,  36)

     Largest allocated arrays     est. size (Mb)     dimensions
        Kohn-Sham Wavefunctions         0.03 Mb     (    194,   10)
        NL pseudopotentials             0.11 Mb     (    194,   36)
        Each V/rho on FFT grid          0.38 Mb     (  24576)
        Each G-vector array             0.05 Mb     (   7162)
        G-vector shells                 0.00 Mb     (    624)
     Largest temporary arrays     est. size (Mb)     dimensions
        Auxiliary wavefunctions         0.12 Mb     (    194,   40)
        Each subspace H/S matrix        0.02 Mb     (  40,  40)
        Each <psi_i|beta_j> matrix      0.01 Mb     (     36,   10)

     The potential is recalculated from file :
     ./_ph0/PbS.save/charge-density.dat


     negative rho (up, down):  0.156E-01 0.000E+00
     Starting wfc are   13 atomic wfcs

     total cpu time spent up to now is      105.8 secs

     per-process dynamical memory:    67.7 Mb

     Band Structure Calculation
     Davidson diagonalization with overlap

     ethr =  5.00E-11,  avg # of iterations = 29.3

     total cpu time spent up to now is      221.0 secs

     End of band structure calculation

     Number of k-points >= 100: set verbosity='high' to print the bands.

     Writing output data file PbS.save

                                                                                

     bravais-lattice index     =            0
     lattice parameter (alat)  =      11.2163  a.u.
     unit-cell volume          =     346.2077 (a.u.)^3
     number of atoms/cell      =            2
     number of atomic types    =            2
     kinetic-energy cut-off    =      50.0000  Ry
     charge density cut-off    =     600.0000  Ry
     convergence threshold     =      1.0E-16
     beta                      =       0.7000
     number of iterations used =            4
     Exchange-correlation      = PBESOL ( 1 410 8 0)
     EXX-fraction              =        0.00


     celldm(1)=   11.21629  celldm(2)=    0.00000  celldm(3)=    0.00000
     celldm(4)=    0.00000  celldm(5)=    0.00000  celldm(6)=    0.00000

     crystal axes: (cart. coord. in units of alat)
               a(1) = (  0.0000  0.4969  0.4969 )  
               a(2) = (  0.4969  0.0000  0.4969 )  
               a(3) = (  0.4969  0.4969  0.0000 )  

     reciprocal axes: (cart. coord. in units 2 pi/alat)
               b(1) = ( -1.0063  1.0063  1.0063 )  
               b(2) = (  1.0063 -1.0063  1.0063 )  
               b(3) = (  1.0063  1.0063 -1.0063 )  


     Atoms inside the unit cell: 

   Cartesian axes

     site n.  atom      mass           positions (alat units)
        1        Pb 207.2000   tau( 1) = (    0.00000    0.00000    0.00000  )
        2        S   32.0600   tau( 2) = (    0.49688    0.49688    0.49688  )

     Computing dynamical matrix for 
                    q = (  -0.2515690  -0.7547070   0.7547070 )
 
      2 Sym.Ops. (no q -> -q+G )


     G cutoff = 1912.0101  (   7162 G-vectors)     FFT grid: ( 64, 64, 64)
     G cutoff =  637.3367  (   1385 G-vectors)  smooth grid: ( 36, 36, 36)
     number of k points=  1872

     PseudoPot. # 1 for Pb read from file:
     /work/02599/asmiller/pseudo/gbrv/pbe_GBRV/pb_pbe_v1.uspp.F.UPF
     MD5 check sum: a5f44a0c8587cfbb5a05efeead6b9227
     Pseudo is Ultrasoft + core correction, Zval = 14.0
     Generated by new atomic code, or converted to UPF format
     Using radial grid of  899 points,  6 beta functions with: 
                l(1) =   0
                l(2) =   0
                l(3) =   1
                l(4) =   1
                l(5) =   2
                l(6) =   2
     Q(r) pseudized with  6 coefficients,  rinner =    1.000   1.000   1.000
                                                       1.000   1.000

     PseudoPot. # 2 for S  read from file:
     /work/02599/asmiller/pseudo/gbrv/pbe_GBRV/s_pbe_v1.2.uspp.F.UPF
     MD5 check sum: 18038e556f4a7980c01aa0ca135f6653
     Pseudo is Ultrasoft + core correction, Zval =  6.0
     Generated by new atomic code, or converted to UPF format
     Using radial grid of  907 points,  6 beta functions with: 
                l(1) =   0
                l(2) =   0
                l(3) =   1
                l(4) =   1
                l(5) =   2
                l(6) =   2
     Q(r) pseudized with  8 coefficients,  rinner =    1.300   1.300   1.300
                                                       1.300   1.300


     Atomic displacements:
     There are   6 irreducible representations

     Representation     1      1 modes -A' To be done

     Representation     2      1 modes -A' To be done

     Representation     3      1 modes -A' To be done

     Representation     4      1 modes -A' To be done

     Representation     5      1 modes -A'' To be done

     Representation     6      1 modes -A'' To be done



     Alpha used in Ewald sum =   2.8000

     negative rho (up, down):  0.156E-01 0.000E+00
     PHONON       : 36m29.18s CPU    37m21.04s WALL



     Representation #  1 mode #   1

     Self-consistent Calculation

      iter #   1 total cpu time :  2261.0 secs   av.it.:   6.7
      thresh= 0.100E-01 alpha_mix =  0.700 |ddv_scf|^2 =  0.404E-05

      iter #   2 total cpu time :  2302.1 secs   av.it.:  16.7
      thresh= 0.201E-03 alpha_mix =  0.700 |ddv_scf|^2 =  0.123E-04

      iter #   3 total cpu time :  2339.1 secs   av.it.:  14.8
      thresh= 0.351E-03 alpha_mix =  0.700 |ddv_scf|^2 =  0.218E-06

      iter #   4 total cpu time :  2377.9 secs   av.it.:  15.7
      thresh= 0.466E-04 alpha_mix =  0.700 |ddv_scf|^2 =  0.832E-08

      iter #   5 total cpu time :  2417.8 secs   av.it.:  16.3
      thresh= 0.912E-05 alpha_mix =  0.700 |ddv_scf|^2 =  0.839E-09

      iter #   6 total cpu time :  2458.5 secs   av.it.:  16.6
      thresh= 0.290E-05 alpha_mix =  0.700 |ddv_scf|^2 =  0.357E-10

      iter #   7 total cpu time :  2499.9 secs   av.it.:  17.0
      thresh= 0.597E-06 alpha_mix =  0.700 |ddv_scf|^2 =  0.246E-11

      iter #   8 total cpu time :  2541.4 secs   av.it.:  17.0
      thresh= 0.157E-06 alpha_mix =  0.700 |ddv_scf|^2 =  0.104E-11

      iter #   9 total cpu time :  2580.7 secs   av.it.:  16.0
      thresh= 0.102E-06 alpha_mix =  0.700 |ddv_scf|^2 =  0.609E-12

      iter #  10 total cpu time :  2619.0 secs   av.it.:  15.6
      thresh= 0.780E-07 alpha_mix =  0.700 |ddv_scf|^2 =  0.463E-13

      iter #  11 total cpu time :  2658.0 secs   av.it.:  15.7
      thresh= 0.215E-07 alpha_mix =  0.700 |ddv_scf|^2 =  0.410E-14

      iter #  12 total cpu time :  2697.7 secs   av.it.:  16.2
      thresh= 0.640E-08 alpha_mix =  0.700 |ddv_scf|^2 =  0.295E-15

      iter #  13 total cpu time :  2738.8 secs   av.it.:  16.8
      thresh= 0.172E-08 alpha_mix =  0.700 |ddv_scf|^2 =  0.316E-16

     End of self-consistent calculation

     Convergence has been achieved 


     Representation #  2 mode #   2

     Self-consistent Calculation

      iter #   1 total cpu time :  2765.3 secs   av.it.:   9.5
      thresh= 0.100E-01 alpha_mix =  0.700 |ddv_scf|^2 =  0.509E-04

      iter #   2 total cpu time :  2805.8 secs   av.it.:  16.5
      thresh= 0.714E-03 alpha_mix =  0.700 |ddv_scf|^2 =  0.206E-03

      iter #   3 total cpu time :  2841.0 secs   av.it.:  14.1
      thresh= 0.144E-02 alpha_mix =  0.700 |ddv_scf|^2 =  0.937E-06

      iter #   4 total cpu time :  2880.9 secs   av.it.:  16.3
      thresh= 0.968E-04 alpha_mix =  0.700 |ddv_scf|^2 =  0.398E-07

      iter #   5 total cpu time :  2920.3 secs   av.it.:  15.9
      thresh= 0.199E-04 alpha_mix =  0.700 |ddv_scf|^2 =  0.304E-08

      iter #   6 total cpu time :  2960.4 secs   av.it.:  16.4
      thresh= 0.551E-05 alpha_mix =  0.700 |ddv_scf|^2 =  0.211E-09

      iter #   7 total cpu time :  3000.6 secs   av.it.:  16.4
      thresh= 0.145E-05 alpha_mix =  0.700 |ddv_scf|^2 =  0.284E-10

      iter #   8 total cpu time :  3041.1 secs   av.it.:  16.5
      thresh= 0.533E-06 alpha_mix =  0.700 |ddv_scf|^2 =  0.417E-11

      iter #   9 total cpu time :  3080.1 secs   av.it.:  15.9
      thresh= 0.204E-06 alpha_mix =  0.700 |ddv_scf|^2 =  0.361E-12

      iter #  10 total cpu time :  3119.5 secs   av.it.:  16.1
      thresh= 0.601E-07 alpha_mix =  0.700 |ddv_scf|^2 =  0.426E-13

      iter #  11 total cpu time :  3159.0 secs   av.it.:  16.0
      thresh= 0.206E-07 alpha_mix =  0.700 |ddv_scf|^2 =  0.387E-14

      iter #  12 total cpu time :  3198.8 secs   av.it.:  16.3
      thresh= 0.622E-08 alpha_mix =  0.700 |ddv_scf|^2 =  0.130E-14

      iter #  13 total cpu time :  3238.7 secs   av.it.:  16.3
      thresh= 0.361E-08 alpha_mix =  0.700 |ddv_scf|^2 =  0.253E-15

      iter #  14 total cpu time :  3277.9 secs   av.it.:  15.9
      thresh= 0.159E-08 alpha_mix =  0.700 |ddv_scf|^2 =  0.662E-16

     End of self-consistent calculation

     Convergence has been achieved 


     Representation #  3 mode #   3

     Self-consistent Calculation

      iter #   1 total cpu time :  3298.1 secs   av.it.:   6.7
      thresh= 0.100E-01 alpha_mix =  0.700 |ddv_scf|^2 =  0.611E-05

      iter #   2 total cpu time :  3338.7 secs   av.it.:  16.5
      thresh= 0.247E-03 alpha_mix =  0.700 |ddv_scf|^2 =  0.178E-04

      iter #   3 total cpu time :  3375.1 secs   av.it.:  14.6
      thresh= 0.421E-03 alpha_mix =  0.700 |ddv_scf|^2 =  0.306E-06

      iter #   4 total cpu time :  3413.3 secs   av.it.:  15.5
      thresh= 0.553E-04 alpha_mix =  0.700 |ddv_scf|^2 =  0.678E-08

      iter #   5 total cpu time :  3453.7 secs   av.it.:  16.5
      thresh= 0.824E-05 alpha_mix =  0.700 |ddv_scf|^2 =  0.637E-09

      iter #   6 total cpu time :  3494.5 secs   av.it.:  16.7
      thresh= 0.252E-05 alpha_mix =  0.700 |ddv_scf|^2 =  0.303E-10

      iter #   7 total cpu time :  3536.3 secs   av.it.:  17.1
      thresh= 0.550E-06 alpha_mix =  0.700 |ddv_scf|^2 =  0.228E-11

      iter #   8 total cpu time :  3577.9 secs   av.it.:  17.0
      thresh= 0.151E-06 alpha_mix =  0.700 |ddv_scf|^2 =  0.459E-12

      iter #   9 total cpu time :  3617.9 secs   av.it.:  16.3
      thresh= 0.678E-07 alpha_mix =  0.700 |ddv_scf|^2 =  0.343E-12

      iter #  10 total cpu time :  3656.3 secs   av.it.:  15.6
      thresh= 0.586E-07 alpha_mix =  0.700 |ddv_scf|^2 =  0.238E-13

      iter #  11 total cpu time :  3694.4 secs   av.it.:  15.5
      thresh= 0.154E-07 alpha_mix =  0.700 |ddv_scf|^2 =  0.924E-15

      iter #  12 total cpu time :  3734.9 secs   av.it.:  16.5
      thresh= 0.304E-08 alpha_mix =  0.700 |ddv_scf|^2 =  0.121E-15

      iter #  13 total cpu time :  3776.0 secs   av.it.:  16.8
      thresh= 0.110E-08 alpha_mix =  0.700 |ddv_scf|^2 =  0.114E-16

     End of self-consistent calculation

     Convergence has been achieved 


     Representation #  4 mode #   4

     Self-consistent Calculation

      iter #   1 total cpu time :  3802.8 secs   av.it.:   9.5
      thresh= 0.100E-01 alpha_mix =  0.700 |ddv_scf|^2 =  0.192E-04

      iter #   2 total cpu time :  3844.4 secs   av.it.:  17.1
      thresh= 0.438E-03 alpha_mix =  0.700 |ddv_scf|^2 =  0.520E-04

      iter #   3 total cpu time :  3882.1 secs   av.it.:  15.2
      thresh= 0.721E-03 alpha_mix =  0.700 |ddv_scf|^2 =  0.177E-05

      iter #   4 total cpu time :  3920.7 secs   av.it.:  15.6
      thresh= 0.133E-03 alpha_mix =  0.700 |ddv_scf|^2 =  0.536E-07

      iter #   5 total cpu time :  3958.9 secs   av.it.:  15.4
      thresh= 0.232E-04 alpha_mix =  0.700 |ddv_scf|^2 =  0.178E-08

      iter #   6 total cpu time :  3999.9 secs   av.it.:  16.8
      thresh= 0.422E-05 alpha_mix =  0.700 |ddv_scf|^2 =  0.155E-09

      iter #   7 total cpu time :  4040.7 secs   av.it.:  16.6
      thresh= 0.125E-05 alpha_mix =  0.700 |ddv_scf|^2 =  0.237E-10

      iter #   8 total cpu time :  4081.7 secs   av.it.:  16.8
      thresh= 0.487E-06 alpha_mix =  0.700 |ddv_scf|^2 =  0.222E-11

      iter #   9 total cpu time :  4121.9 secs   av.it.:  16.4
      thresh= 0.149E-06 alpha_mix =  0.700 |ddv_scf|^2 =  0.358E-12

      iter #  10 total cpu time :  4160.9 secs   av.it.:  15.8
      thresh= 0.598E-07 alpha_mix =  0.700 |ddv_scf|^2 =  0.842E-13

      iter #  11 total cpu time :  4199.0 secs   av.it.:  15.4
      thresh= 0.290E-07 alpha_mix =  0.700 |ddv_scf|^2 =  0.579E-14

      iter #  12 total cpu time :  4239.2 secs   av.it.:  16.4
      thresh= 0.761E-08 alpha_mix =  0.700 |ddv_scf|^2 =  0.803E-15

      iter #  13 total cpu time :  4279.8 secs   av.it.:  16.6
      thresh= 0.283E-08 alpha_mix =  0.700 |ddv_scf|^2 =  0.291E-15

      iter #  14 total cpu time :  4319.1 secs   av.it.:  16.0
      thresh= 0.170E-08 alpha_mix =  0.700 |ddv_scf|^2 =  0.541E-16

     End of self-consistent calculation

     Convergence has been achieved 


     Representation #  5 mode #   5

     Self-consistent Calculation

      iter #   1 total cpu time :  4343.8 secs   av.it.:   8.7
      thresh= 0.100E-01 alpha_mix =  0.700 |ddv_scf|^2 =  0.574E-05

      iter #   2 total cpu time :  4384.2 secs   av.it.:  16.1
      thresh= 0.240E-03 alpha_mix =  0.700 |ddv_scf|^2 =  0.272E-05

      iter #   3 total cpu time :  4423.0 secs   av.it.:  15.4
      thresh= 0.165E-03 alpha_mix =  0.700 |ddv_scf|^2 =  0.352E-08

      iter #   4 total cpu time :  4464.0 secs   av.it.:  16.4
      thresh= 0.593E-05 alpha_mix =  0.700 |ddv_scf|^2 =  0.178E-09

      iter #   5 total cpu time :  4505.3 secs   av.it.:  16.5
      thresh= 0.133E-05 alpha_mix =  0.700 |ddv_scf|^2 =  0.677E-11

      iter #   6 total cpu time :  4544.5 secs   av.it.:  15.6
      thresh= 0.260E-06 alpha_mix =  0.700 |ddv_scf|^2 =  0.235E-13

      iter #   7 total cpu time :  4584.5 secs   av.it.:  16.0
      thresh= 0.153E-07 alpha_mix =  0.700 |ddv_scf|^2 =  0.128E-14

      iter #   8 total cpu time :  4624.2 secs   av.it.:  15.8
      thresh= 0.358E-08 alpha_mix =  0.700 |ddv_scf|^2 =  0.147E-16

     End of self-consistent calculation

     Convergence has been achieved 


     Representation #  6 mode #   6

     Self-consistent Calculation

      iter #   1 total cpu time :  4643.0 secs   av.it.:   6.0
      thresh= 0.100E-01 alpha_mix =  0.700 |ddv_scf|^2 =  0.577E-06

      iter #   2 total cpu time :  4683.0 secs   av.it.:  16.0
      thresh= 0.760E-04 alpha_mix =  0.700 |ddv_scf|^2 =  0.197E-06

      iter #   3 total cpu time :  4722.4 secs   av.it.:  15.5
      thresh= 0.444E-04 alpha_mix =  0.700 |ddv_scf|^2 =  0.212E-08

      iter #   4 total cpu time :  4762.6 secs   av.it.:  16.1
      thresh= 0.460E-05 alpha_mix =  0.700 |ddv_scf|^2 =  0.142E-09

      iter #   5 total cpu time :  4802.7 secs   av.it.:  16.0
      thresh= 0.119E-05 alpha_mix =  0.700 |ddv_scf|^2 =  0.104E-11

      iter #   6 total cpu time :  4841.2 secs   av.it.:  15.3
      thresh= 0.102E-06 alpha_mix =  0.700 |ddv_scf|^2 =  0.391E-14

      iter #   7 total cpu time :  4882.2 secs   av.it.:  16.4
      thresh= 0.626E-08 alpha_mix =  0.700 |ddv_scf|^2 =  0.927E-16

     End of self-consistent calculation

     Convergence has been achieved 
 
     Number of q in the star =   24
     List of q in the star:
          1  -0.251568987  -0.754706961   0.754706961
          2  -0.251568987  -0.754706961  -0.754706961
          3  -0.251568987   0.754706961   0.754706961
          4  -0.251568987   0.754706961  -0.754706961
          5   0.754706961   0.754706961  -0.251568987
          6   0.754706961   0.251568987  -0.754706961
          7  -0.754706961  -0.754706961   0.251568987
          8  -0.754706961   0.754706961   0.251568987
          9   0.251568987  -0.754706961  -0.754706961
         10   0.251568987   0.754706961   0.754706961
         11  -0.754706961   0.754706961  -0.251568987
         12   0.754706961   0.754706961   0.251568987
         13   0.754706961  -0.754706961  -0.251568987
         14   0.754706961  -0.251568987  -0.754706961
         15   0.754706961   0.251568987   0.754706961
         16  -0.754706961   0.251568987  -0.754706961
         17  -0.754706961   0.251568987   0.754706961
         18  -0.754706961  -0.251568987   0.754706961
         19   0.754706961  -0.251568987   0.754706961
         20   0.251568987  -0.754706961   0.754706961
         21  -0.754706961  -0.251568987  -0.754706961
         22   0.251568987   0.754706961  -0.754706961
         23   0.754706961  -0.754706961   0.251568987
         24  -0.754706961  -0.754706961  -0.251568987

     Diagonalizing the dynamical matrix

     q = (   -0.251568987  -0.754706961   0.754706961 ) 

 **************************************************************************
     omega( 1) =       1.423640 [THz] =      47.487525 [cm-1]
     omega( 2) =       1.579453 [THz] =      52.684891 [cm-1]
     omega( 3) =       2.461983 [THz] =      82.122930 [cm-1]
     omega( 4) =       4.838408 [THz] =     161.391917 [cm-1]
     omega( 5) =       4.857592 [THz] =     162.031825 [cm-1]
     omega( 6) =       6.008630 [THz] =     200.426340 [cm-1]
 **************************************************************************

     Mode symmetry, C_s (m)     point group:

     omega(  1 -  1) =         47.5  [cm-1]   --> A''                
     omega(  2 -  2) =         52.7  [cm-1]   --> A'                 
     omega(  3 -  3) =         82.1  [cm-1]   --> A'                 
     omega(  4 -  4) =        161.4  [cm-1]   --> A'                 
     omega(  5 -  5) =        162.0  [cm-1]   --> A''                
     omega(  6 -  6) =        200.4  [cm-1]   --> A'                 

 **************************************************************************

     Calculation of q =    0.0000000  -0.5031380   0.5031380
 
     Parallelization info
     --------------------
     sticks:   dense  smooth     PW     G-vecs:    dense   smooth      PW
     Min         213      70     24                 7158     1366     267
     Max         214      71     26                 7162     1390     269
     Sum        2563     847    295                85923    16529    3215
 


     bravais-lattice index     =            0
     lattice parameter (alat)  =      11.2163  a.u.
     unit-cell volume          =     346.2077 (a.u.)^3
     number of atoms/cell      =            2
     number of atomic types    =            2
     number of electrons       =        20.00
     number of Kohn-Sham states=           10
     kinetic-energy cutoff     =      50.0000  Ry
     charge density cutoff     =     600.0000  Ry
     Exchange-correlation      = PBESOL ( 1 410 8 0)
     EXX-fraction              =        0.00

     celldm(1)=  11.216293  celldm(2)=   0.000000  celldm(3)=   0.000000
     celldm(4)=   0.000000  celldm(5)=   0.000000  celldm(6)=   0.000000

     crystal axes: (cart. coord. in units of alat)
[...]
     Min         213      70     25                 7158     1370     281
     Max         214      71     26                 7162     1383     283
     Sum        2563     847    301                85923    16529    3383
 


     bravais-lattice index     =            0
     lattice parameter (alat)  =      11.2163  a.u.
     unit-cell volume          =     346.2077 (a.u.)^3
     number of atoms/cell      =            2
     number of atomic types    =            2
     number of electrons       =        20.00
     number of Kohn-Sham states=           10
     kinetic-energy cutoff     =      50.0000  Ry
     charge density cutoff     =     600.0000  Ry
     Exchange-correlation      = PBESOL ( 1 410 8 0)
     EXX-fraction              =        0.00

     celldm(1)=  11.216293  celldm(2)=   0.000000  celldm(3)=   0.000000
     celldm(4)=   0.000000  celldm(5)=   0.000000  celldm(6)=   0.000000

     crystal axes: (cart. coord. in units of alat)
               a(1) = (   0.000000   0.496882   0.496882 )  
               a(2) = (   0.496882   0.000000   0.496882 )  
               a(3) = (   0.496882   0.496882   0.000000 )  

     reciprocal axes: (cart. coord. in units 2 pi/alat)
               b(1) = ( -1.006276  1.006276  1.006276 )  
               b(2) = (  1.006276 -1.006276  1.006276 )  
               b(3) = (  1.006276  1.006276 -1.006276 )  


     PseudoPot. # 1 for Pb read from file:
     /work/02599/asmiller/pseudo/gbrv/pbe_GBRV/pb_pbe_v1.uspp.F.UPF
     MD5 check sum: a5f44a0c8587cfbb5a05efeead6b9227
     Pseudo is Ultrasoft + core correction, Zval = 14.0
     Generated by new atomic code, or converted to UPF format
     Using radial grid of  899 points,  6 beta functions with: 
                l(1) =   0
                l(2) =   0
                l(3) =   1
                l(4) =   1
                l(5) =   2
                l(6) =   2
     Q(r) pseudized with  6 coefficients,  rinner =    1.000   1.000   1.000
                                                       1.000   1.000

     PseudoPot. # 2 for S  read from file:
     /work/02599/asmiller/pseudo/gbrv/pbe_GBRV/s_pbe_v1.2.uspp.F.UPF
     MD5 check sum: 18038e556f4a7980c01aa0ca135f6653
     Pseudo is Ultrasoft + core correction, Zval =  6.0
     Generated by new atomic code, or converted to UPF format
     Using radial grid of  907 points,  6 beta functions with: 
                l(1) =   0
                l(2) =   0
                l(3) =   1
                l(4) =   1
                l(5) =   2
                l(6) =   2
     Q(r) pseudized with  8 coefficients,  rinner =    1.300   1.300   1.300
                                                       1.300   1.300

     atomic species   valence    mass     pseudopotential
        Pb            14.00   207.20000     Pb( 1.00)
        S              6.00    32.06000     S ( 1.00)

     48 Sym. Ops., with inversion, found



   Cartesian axes

     site n.     atom                  positions (alat units)
         1           Pb  tau(   1) = (   0.0000000   0.0000000   0.0000000  )
         2           S   tau(   2) = (   0.4968816   0.4968816   0.4968816  )

     number of k points=   524

     Number of k-points >= 100: set verbosity='high' to print them.

     Dense  grid:    85923 G-vectors     FFT dimensions: (  64,  64,  64)

     Smooth grid:    16529 G-vectors     FFT dimensions: (  36,  36,  36)

     Largest allocated arrays     est. size (Mb)     dimensions
        Kohn-Sham Wavefunctions         0.03 Mb     (    191,   10)
        NL pseudopotentials             0.10 Mb     (    191,   36)
        Each V/rho on FFT grid          0.38 Mb     (  24576)
        Each G-vector array             0.05 Mb     (   7162)
        G-vector shells                 0.00 Mb     (    619)
     Largest temporary arrays     est. size (Mb)     dimensions
        Auxiliary wavefunctions         0.12 Mb     (    191,   40)
        Each subspace H/S matrix        0.02 Mb     (  40,  40)
        Each <psi_i|beta_j> matrix      0.01 Mb     (     36,   10)

     The potential is recalculated from file :
     ./_ph0/PbS.save/charge-density.dat


     negative rho (up, down):  0.156E-01 0.000E+00
     Starting wfc are   13 atomic wfcs

     total cpu time spent up to now is      307.5 secs

     per-process dynamical memory:    78.8 Mb

     Band Structure Calculation
     Davidson diagonalization with overlap

     ethr =  5.00E-11,  avg # of iterations = 28.6

     total cpu time spent up to now is      338.5 secs

     End of band structure calculation

     Number of k-points >= 100: set verbosity='high' to print the bands.

     Writing output data file PbS.save

                                                                                

     bravais-lattice index     =            0
     lattice parameter (alat)  =      11.2163  a.u.
     unit-cell volume          =     346.2077 (a.u.)^3
     number of atoms/cell      =            2
     number of atomic types    =            2
     kinetic-energy cut-off    =      50.0000  Ry
     charge density cut-off    =     600.0000  Ry
     convergence threshold     =      1.0E-16
     beta                      =       0.7000
     number of iterations used =            4
     Exchange-correlation      = PBESOL ( 1 410 8 0)
     EXX-fraction              =        0.00


     celldm(1)=   11.21629  celldm(2)=    0.00000  celldm(3)=    0.00000
     celldm(4)=    0.00000  celldm(5)=    0.00000  celldm(6)=    0.00000

     crystal axes: (cart. coord. in units of alat)
               a(1) = (  0.0000  0.4969  0.4969 )  
               a(2) = (  0.4969  0.0000  0.4969 )  
               a(3) = (  0.4969  0.4969  0.0000 )  

     reciprocal axes: (cart. coord. in units 2 pi/alat)
               b(1) = ( -1.0063  1.0063  1.0063 )  
               b(2) = (  1.0063 -1.0063  1.0063 )  
               b(3) = (  1.0063  1.0063 -1.0063 )  


     Atoms inside the unit cell: 

   Cartesian axes

     site n.  atom      mass           positions (alat units)
        1        Pb 207.2000   tau( 1) = (    0.00000    0.00000    0.00000  )
        2        S   32.0600   tau( 2) = (    0.49688    0.49688    0.49688  )

     Computing dynamical matrix for 
                    q = (  -1.0062759   0.5031380   0.0000000 )
 
      8 Sym.Ops. (no q -> -q+G )


     G cutoff = 1912.0101  (   7162 G-vectors)     FFT grid: ( 64, 64, 64)
     G cutoff =  637.3367  (   1370 G-vectors)  smooth grid: ( 36, 36, 36)
     number of k points=   524

     PseudoPot. # 1 for Pb read from file:
     /work/02599/asmiller/pseudo/gbrv/pbe_GBRV/pb_pbe_v1.uspp.F.UPF
     MD5 check sum: a5f44a0c8587cfbb5a05efeead6b9227
     Pseudo is Ultrasoft + core correction, Zval = 14.0
     Generated by new atomic code, or converted to UPF format
     Using radial grid of  899 points,  6 beta functions with: 
                l(1) =   0
                l(2) =   0
                l(3) =   1
                l(4) =   1
                l(5) =   2
                l(6) =   2
     Q(r) pseudized with  6 coefficients,  rinner =    1.000   1.000   1.000
                                                       1.000   1.000

     PseudoPot. # 2 for S  read from file:
     /work/02599/asmiller/pseudo/gbrv/pbe_GBRV/s_pbe_v1.2.uspp.F.UPF
     MD5 check sum: 18038e556f4a7980c01aa0ca135f6653
     Pseudo is Ultrasoft + core correction, Zval =  6.0
     Generated by new atomic code, or converted to UPF format
     Using radial grid of  907 points,  6 beta functions with: 
                l(1) =   0
                l(2) =   0
                l(3) =   1
                l(4) =   1
                l(5) =   2
                l(6) =   2
     Q(r) pseudized with  8 coefficients,  rinner =    1.300   1.300   1.300
                                                       1.300   1.300


     Atomic displacements:
     There are   4 irreducible representations

     Representation     1      1 modes -A_1  X_1  W_1 To be done

     Representation     2      1 modes -B_2  X_3  W_2 To be done

     Representation     3      2 modes -E    X_5  W_3 To be done

     Representation     4      2 modes -E    X_5  W_3 To be done



     Alpha used in Ewald sum =   2.8000

     negative rho (up, down):  0.156E-01 0.000E+00
     PHONON       :     1h44m CPU        1h46m WALL



     Representation #  1 mode #   1

     Self-consistent Calculation

      iter #   1 total cpu time :  6385.7 secs   av.it.:   4.9
      thresh= 0.100E-01 alpha_mix =  0.700 |ddv_scf|^2 =  0.132E-05

      iter #   2 total cpu time :  6396.2 secs   av.it.:  14.8
      thresh= 0.115E-03 alpha_mix =  0.700 |ddv_scf|^2 =  0.918E-06

      iter #   3 total cpu time :  6406.4 secs   av.it.:  14.2
      thresh= 0.958E-04 alpha_mix =  0.700 |ddv_scf|^2 =  0.154E-08

      iter #   4 total cpu time :  6417.8 secs   av.it.:  16.1
      thresh= 0.392E-05 alpha_mix =  0.700 |ddv_scf|^2 =  0.161E-09

      iter #   5 total cpu time :  6428.8 secs   av.it.:  15.7
      thresh= 0.127E-05 alpha_mix =  0.700 |ddv_scf|^2 =  0.633E-12

      iter #   6 total cpu time :  6439.8 secs   av.it.:  15.7
      thresh= 0.795E-07 alpha_mix =  0.700 |ddv_scf|^2 =  0.104E-13

      iter #   7 total cpu time :  6450.9 secs   av.it.:  15.8
      thresh= 0.102E-07 alpha_mix =  0.700 |ddv_scf|^2 =  0.871E-16

     End of self-consistent calculation

     Convergence has been achieved 


     Representation #  2 mode #   2

     Self-consistent Calculation

      iter #   1 total cpu time :  6458.0 secs   av.it.:   8.5
      thresh= 0.100E-01 alpha_mix =  0.700 |ddv_scf|^2 =  0.115E-04

      iter #   2 total cpu time :  6469.1 secs   av.it.:  15.8
      thresh= 0.339E-03 alpha_mix =  0.700 |ddv_scf|^2 =  0.193E-04

      iter #   3 total cpu time :  6479.2 secs   av.it.:  14.2
      thresh= 0.440E-03 alpha_mix =  0.700 |ddv_scf|^2 =  0.398E-06

      iter #   4 total cpu time :  6489.7 secs   av.it.:  14.1
      thresh= 0.631E-04 alpha_mix =  0.700 |ddv_scf|^2 =  0.147E-08

      iter #   5 total cpu time :  6500.8 secs   av.it.:  15.7
      thresh= 0.383E-05 alpha_mix =  0.700 |ddv_scf|^2 =  0.419E-10

      iter #   6 total cpu time :  6511.2 secs   av.it.:  14.7
      thresh= 0.647E-06 alpha_mix =  0.700 |ddv_scf|^2 =  0.213E-12

      iter #   7 total cpu time :  6522.2 secs   av.it.:  15.6
      thresh= 0.461E-07 alpha_mix =  0.700 |ddv_scf|^2 =  0.737E-14

      iter #   8 total cpu time :  6532.9 secs   av.it.:  15.1
      thresh= 0.859E-08 alpha_mix =  0.700 |ddv_scf|^2 =  0.741E-16

     End of self-consistent calculation

     Convergence has been achieved 


     Representation #  3 modes #   3  4

     Self-consistent Calculation

      iter #   1 total cpu time :  6547.4 secs   av.it.:   8.9
      thresh= 0.100E-01 alpha_mix =  0.700 |ddv_scf|^2 =  0.449E-05

      iter #   2 total cpu time :  6571.4 secs   av.it.:  17.4
      thresh= 0.212E-03 alpha_mix =  0.700 |ddv_scf|^2 =  0.576E-05

      iter #   3 total cpu time :  6594.0 secs   av.it.:  16.3
      thresh= 0.240E-03 alpha_mix =  0.700 |ddv_scf|^2 =  0.163E-08

      iter #   4 total cpu time :  6621.0 secs   av.it.:  17.6
      thresh= 0.404E-05 alpha_mix =  0.700 |ddv_scf|^2 =  0.663E-10

      iter #   5 total cpu time :  6645.3 secs   av.it.:  17.6
      thresh= 0.814E-06 alpha_mix =  0.700 |ddv_scf|^2 =  0.288E-11

      iter #   6 total cpu time :  6667.7 secs   av.it.:  16.1
      thresh= 0.170E-06 alpha_mix =  0.700 |ddv_scf|^2 =  0.236E-13

      iter #   7 total cpu time :  6691.6 secs   av.it.:  17.2
      thresh= 0.153E-07 alpha_mix =  0.700 |ddv_scf|^2 =  0.470E-15

      iter #   8 total cpu time :  6714.9 secs   av.it.:  16.8
      thresh= 0.217E-08 alpha_mix =  0.700 |ddv_scf|^2 =  0.331E-17

     End of self-consistent calculation

     Convergence has been achieved 


     Representation #  4 modes #   5  6

     Self-consistent Calculation

      iter #   1 total cpu time :  6726.5 secs   av.it.:   6.7
      thresh= 0.100E-01 alpha_mix =  0.700 |ddv_scf|^2 =  0.592E-06

      iter #   2 total cpu time :  6750.4 secs   av.it.:  17.3
      thresh= 0.770E-04 alpha_mix =  0.700 |ddv_scf|^2 =  0.661E-06

      iter #   3 total cpu time :  6773.1 secs   av.it.:  16.4
      thresh= 0.813E-04 alpha_mix =  0.700 |ddv_scf|^2 =  0.820E-09

      iter #   4 total cpu time :  6796.8 secs   av.it.:  17.2
      thresh= 0.286E-05 alpha_mix =  0.700 |ddv_scf|^2 =  0.406E-10

      iter #   5 total cpu time :  6820.3 secs   av.it.:  16.9
      thresh= 0.637E-06 alpha_mix =  0.700 |ddv_scf|^2 =  0.843E-12

      iter #   6 total cpu time :  6842.1 secs   av.it.:  15.5
      thresh= 0.918E-07 alpha_mix =  0.700 |ddv_scf|^2 =  0.291E-14

      iter #   7 total cpu time :  6865.7 secs   av.it.:  17.1
      thresh= 0.539E-08 alpha_mix =  0.700 |ddv_scf|^2 =  0.383E-16

     End of self-consistent calculation

     Convergence has been achieved 
 
     Number of q in the star =    6
     List of q in the star:
          1  -1.006275948   0.503137974   0.000000000
          2   1.006275948   0.000000000   0.503137974
          3   1.006275948   0.000000000  -0.503137974
          4   1.006275948  -0.503137974   0.000000000
          5   0.503137974   0.000000000  -1.006275948
          6  -0.503137974   0.000000000   1.006275948

     Diagonalizing the dynamical matrix

     q = (   -1.006275948   0.503137974   0.000000000 ) 

 **************************************************************************
     omega( 1) =       1.621838 [THz] =      54.098694 [cm-1]
     omega( 2) =       1.621838 [THz] =      54.098694 [cm-1]
     omega( 3) =       2.158481 [THz] =      71.999191 [cm-1]
     omega( 4) =       3.464224 [THz] =     115.554088 [cm-1]
     omega( 5) =       3.464224 [THz] =     115.554088 [cm-1]
     omega( 6) =       6.049870 [THz] =     201.801930 [cm-1]
 **************************************************************************

     Mode symmetry, D_2d (-42m) point group:

     omega(  1 -  2) =         54.1  [cm-1]   --> E    X_5  W_3      
     omega(  3 -  3) =         72.0  [cm-1]   --> B_2  X_3  W_2      
     omega(  4 -  5) =        115.6  [cm-1]   --> E    X_5  W_3      
     omega(  6 -  6) =        201.8  [cm-1]   --> A_1  X_1  W_1      

 **************************************************************************
 
     init_run     :      3.52s CPU      3.93s WALL (       7 calls)
     electrons    :    303.38s CPU    326.91s WALL (       7 calls)

     Called by init_run:
     wfcinit      :      0.00s CPU      0.00s WALL (       7 calls)
     potinit      :      0.75s CPU      0.79s WALL (       7 calls)

     Called by electrons:
     c_bands      :    303.35s CPU    326.89s WALL (       7 calls)
     v_of_rho     :      0.21s CPU      0.21s WALL (       8 calls)
     newd         :      0.45s CPU      0.45s WALL (       8 calls)

     Called by c_bands:
     init_us_2    :      8.10s CPU      8.01s WALL (   84555 calls)
     cegterg      :    262.34s CPU    264.61s WALL (    5051 calls)

     Called by *egterg:
     h_psi        :    213.57s CPU    215.46s WALL (   84248 calls)
     s_psi        :    324.94s CPU    332.84s WALL ( 3440138 calls)
     g_psi        :      1.67s CPU      1.85s WALL (   76477 calls)
     cdiaghg      :     28.68s CPU     29.31s WALL (   79197 calls)

     Called by h_psi:
     add_vuspsi   :    173.97s CPU    173.83s WALL ( 1722072 calls)

     General routines
     calbec       :    544.32s CPU    530.99s WALL ( 3592028 calls)
     fft          :     12.15s CPU     12.99s WALL (    8107 calls)
     ffts         :      2.34s CPU      2.55s WALL (    9772 calls)
     fftw         :   3933.65s CPU   3972.25s WALL (29009222 calls)
     interpolate  :      0.03s CPU      0.03s WALL (      15 calls)
     davcio       :      2.18s CPU     21.08s WALL (  396678 calls)
 
     Parallel routines
     fft_scatter  :   2075.60s CPU   2089.02s WALL (29027101 calls)
 
     PHONON       :     1h52m CPU        1h54m WALL

     INITIALIZATION: 
     phq_setup    :      0.45s CPU      0.65s WALL (       8 calls)
     phq_init     :     41.61s CPU     42.33s WALL (       8 calls)
 
     phq_init     :     41.61s CPU     42.33s WALL (       8 calls)
     set_drhoc    :      6.00s CPU      5.99s WALL (      24 calls)
     init_vloc    :      0.07s CPU      0.07s WALL (       8 calls)
     init_us_1    :      1.57s CPU      1.58s WALL (       8 calls)
     newd         :      0.45s CPU      0.45s WALL (       8 calls)
     dvanqq       :      5.63s CPU      5.64s WALL (       8 calls)
     drho         :     23.41s CPU     23.77s WALL (       8 calls)
 
     DYNAMICAL MATRIX:
     dynmat0      :      7.43s CPU      7.65s WALL (       8 calls)
     phqscf       :   6298.74s CPU   6390.73s WALL (       8 calls)
     dynmatrix    :      0.03s CPU      0.07s WALL (       8 calls)
 
     phqscf       :   6298.74s CPU   6390.73s WALL (       8 calls)
     solve_linter :   6289.00s CPU   6379.72s WALL (      34 calls)
     drhodv       :      7.72s CPU      7.97s WALL (      34 calls)
 
     dynmat0      :      7.43s CPU      7.65s WALL (       8 calls)
     dynmat_us    :      3.27s CPU      3.30s WALL (       8 calls)
     d2ionq       :      0.02s CPU      0.02s WALL (       8 calls)
     dynmatcc     :      4.11s CPU      4.12s WALL (       8 calls)
 
     dynmat_us    :      3.27s CPU      3.30s WALL (       8 calls)
     addusdynmat  :      0.00s CPU      0.00s WALL (       8 calls)
 
     phqscf       :   6298.74s CPU   6390.73s WALL (       8 calls)
     solve_linter :   6289.00s CPU   6379.72s WALL (      34 calls)
 
     solve_linter :   6289.00s CPU   6379.72s WALL (      34 calls)
     dvqpsi_us    :     32.43s CPU     32.92s WALL (    8592 calls)
     ortho        :     34.68s CPU     34.55s WALL (   80134 calls)
     cgsolve      :   5581.69s CPU   5640.18s WALL (   80134 calls)
     incdrhoscf   :    253.72s CPU    256.23s WALL (   80134 calls)
     addusddens   :     26.84s CPU     27.01s WALL (     341 calls)
     vpsifft      :    188.66s CPU    191.25s WALL (   70894 calls)
     dv_of_drho   :     11.80s CPU     12.30s WALL (     434 calls)
     mix_pot      :      2.63s CPU      8.25s WALL (     314 calls)
     psymdvscf    :     42.30s CPU     43.86s WALL (     307 calls)
     newdq        :     29.38s CPU     29.53s WALL (     314 calls)
     adddvscf     :     13.05s CPU     13.10s WALL (   71542 calls)
     drhodvus     :      0.04s CPU      0.10s WALL (      34 calls)
 
     dvqpsi_us    :     32.43s CPU     32.92s WALL (    8592 calls)
     dvqpsi_us_on :      7.54s CPU      7.61s WALL (    8592 calls)
 
     cgsolve      :   5581.69s CPU   5640.18s WALL (   80134 calls)
     ch_psi       :   5433.81s CPU   5493.22s WALL ( 1637824 calls)
 
     ch_psi       :   5433.81s CPU   5493.22s WALL ( 1637824 calls)
     h_psiq       :   4859.60s CPU   4916.38s WALL ( 1637824 calls)
     last         :    563.54s CPU    563.63s WALL ( 1637824 calls)
 
     h_psiq       :   4859.60s CPU   4916.38s WALL ( 1637824 calls)
     firstfft     :   2636.77s CPU   2668.38s WALL (12325169 calls)
     secondfft    :   1554.29s CPU   1572.07s WALL (12325169 calls)
     add_vuspsi   :    173.97s CPU    173.83s WALL ( 1722072 calls)
 
     incdrhoscf   :    253.72s CPU    256.23s WALL (   80134 calls)
     addusdbec    :     18.78s CPU     18.15s WALL (   88510 calls)
 
     drhodvus     :      0.04s CPU      0.10s WALL (      34 calls)
 
      General routines
     calbec       :    544.32s CPU    530.99s WALL ( 3592028 calls)
     fft          :     12.15s CPU     12.99s WALL (    8107 calls)
     ffts         :      2.34s CPU      2.55s WALL (    9772 calls)
     fftw         :   3933.65s CPU   3972.25s WALL (29009222 calls)
     cinterpolate :      1.85s CPU      1.94s WALL (     913 calls)
     davcio       :      2.18s CPU     21.08s WALL (  396678 calls)
     write_rec    :      1.06s CPU      5.59s WALL (     348 calls)
 
TACC: Shutting down parallel environment.
TACC: Shutdown complete. Exiting.
