TACC: Starting up job 1924207
TACC: Setting up parallel environment for MVAPICH ssh-based mpirun.
TACC: Setup complete. Running job script.
TACC: starting parallel tasks...

     Program PHONON v.5.0.1 starts on 27Apr2014 at 17:14:34 

     This program is part of the open-source Quantum ESPRESSO suite
     for quantum simulation of materials; please cite
         "P. Giannozzi et al., J. Phys.:Condens. Matter 21 395502 (2009);
          URL http://www.quantum-espresso.org", 
     in publications or presentations arising from this work. More details at
     http://www.quantum-espresso.org/quote.php

     Parallel version (MPI), running on    24 processors
     K-points division:     npool     =    2
     R & G space division:  proc/pool =   12

     Ultrasoft (Vanderbilt) Pseudopotentials

   Info: using nr1, nr2, nr3 values from input

   Info: using nr1s, nr2s, nr3s values from input

     IMPORTANT: XC functional enforced from input :
     Exchange-correlation      = PBESOL ( 1 410 8 0)
     EXX-fraction              =        0.00
     Any further DFT definition will be discarded
     Please, verify this is what you really want

 
     Parallelization info
     --------------------
     sticks:   dense  smooth     PW     G-vecs:    dense   smooth      PW
     Min         254     103     29                 9302     2365     356
     Max         255     104     30                 9306     2383     359
     Sum        3055    1237    349               111643    28475    4285
 

     negative rho (up, down):  0.157E-01 0.000E+00


     Dynamical matrices for ( 6, 6, 6)  uniform grid of q-points
     (  16q-points):
       N         xq(1)         xq(2)         xq(3) 
       1   0.000000000   0.000000000   0.000000000
       2   0.166666667   0.166666667  -0.166666667
       3   0.333333333   0.333333333  -0.333333333
       4  -0.500000000  -0.500000000   0.500000000
       5   0.333333333   0.000000000   0.000000000
       6   0.500000000   0.166666667  -0.166666667
       7  -0.333333333  -0.666666667   0.666666667
       8  -0.166666667  -0.500000000   0.500000000
       9   0.000000000  -0.333333333   0.333333333
      10   0.666666667   0.000000000   0.000000000
      11  -0.166666667  -0.833333333   0.833333333
      12   0.000000000  -0.666666667   0.666666667
      13  -1.000000000   0.000000000   0.000000000
      14  -0.333333333  -0.666666667   1.000000000
      15  -0.166666667  -0.500000000   0.833333333
      16  -1.000000000   0.333333333   0.000000000

     Calculation of q =    0.0000000   0.0000000   0.0000000

                                                                                

     bravais-lattice index     =            0
     lattice parameter (alat)  =      12.1676  a.u.
     unit-cell volume          =     450.3505 (a.u.)^3
     number of atoms/cell      =            2
     number of atomic types    =            2
     kinetic-energy cut-off    =      60.0000  Ry
     charge density cut-off    =     600.0000  Ry
     convergence threshold     =      1.0E-16
     beta                      =       0.7000
     number of iterations used =            4
     Exchange-correlation      = PBESOL ( 1 410 8 0)
     EXX-fraction              =        0.00


     celldm(1)=   12.16756  celldm(2)=    0.00000  celldm(3)=    0.00000
     celldm(4)=    0.00000  celldm(5)=    0.00000  celldm(6)=    0.00000

     crystal axes: (cart. coord. in units of alat)
               a(1) = (  0.0000  0.5000  0.5000 )  
               a(2) = (  0.5000  0.0000  0.5000 )  
               a(3) = (  0.5000  0.5000  0.0000 )  

     reciprocal axes: (cart. coord. in units 2 pi/alat)
               b(1) = ( -1.0000  1.0000  1.0000 )  
               b(2) = (  1.0000 -1.0000  1.0000 )  
               b(3) = (  1.0000  1.0000 -1.0000 )  


     Atoms inside the unit cell: 

   Cartesian axes

     site n.  atom      mass           positions (alat units)
        1        Pb 207.2000   tau( 1) = (    0.00000    0.00000    0.00000  )
        2        Te 127.6000   tau( 2) = (    0.50000    0.50000    0.50000  )

     Computing dynamical matrix for 
                    q = (   0.0000000   0.0000000   0.0000000 )
 
     49 Sym.Ops. (with q -> -q+G )


     G cutoff = 2250.0835  (   9303 G-vectors)     FFT grid: ( 72, 72, 72)
     G cutoff =  900.0334  (   2383 G-vectors)  smooth grid: ( 45, 45, 45)
     number of k points=    16

     PseudoPot. # 1 for Pb read from file:
     /work/02599/asmiller/pseudo/gbrv/pbe_GBRV/pb_pbe_v1.uspp.F.UPF
     MD5 check sum: a5f44a0c8587cfbb5a05efeead6b9227
     Pseudo is Ultrasoft + core correction, Zval = 14.0
     Generated by new atomic code, or converted to UPF format
     Using radial grid of  899 points,  6 beta functions with: 
                l(1) =   0
                l(2) =   0
                l(3) =   1
                l(4) =   1
                l(5) =   2
                l(6) =   2
     Q(r) pseudized with  6 coefficients,  rinner =    1.000   1.000   1.000
                                                       1.000   1.000

     PseudoPot. # 2 for Te read from file:
     /work/02599/asmiller/pseudo/gbrv/pbe_GBRV/te_pbe_v1.uspp.F.UPF
     MD5 check sum: 749656373d74338a59c146dbd702c29e
     Pseudo is Ultrasoft + core correction, Zval =  6.0
     Generated by new atomic code, or converted to UPF format
     Using radial grid of  891 points,  5 beta functions with: 
                l(1) =   0
                l(2) =   0
                l(3) =   1
                l(4) =   1
                l(5) =   2
     Q(r) pseudized with  6 coefficients,  rinner =    1.800   1.800   1.800
                                                       1.800   1.800


     Electric field:
     Dielectric constant
     Born effective charges in two ways 


     Atomic displacements:
     There are   2 irreducible representations

     Representation     1      3 modes -T_1u G_15  G_4- To be done

     Representation     2      3 modes -T_1u G_15  G_4- To be done



     Alpha used in Ewald sum =   2.8000

     negative rho (up, down):  0.157E-01 0.000E+00
     PHONON       :     4.05s CPU         5.26s WALL


     Electric Fields Calculation

      iter #   1 total cpu time :    14.2 secs   av.it.:   7.3
      thresh= 0.100E-01 alpha_mix =  0.700 |ddv_scf|^2 =  0.405E-07

      iter #   2 total cpu time :    19.9 secs   av.it.:  15.9
      thresh= 0.201E-04 alpha_mix =  0.700 |ddv_scf|^2 =  0.500E-08

      iter #   3 total cpu time :    25.3 secs   av.it.:  15.8
      thresh= 0.707E-05 alpha_mix =  0.700 |ddv_scf|^2 =  0.403E-09

      iter #   4 total cpu time :    31.0 secs   av.it.:  15.7
      thresh= 0.201E-05 alpha_mix =  0.700 |ddv_scf|^2 =  0.244E-10

      iter #   5 total cpu time :    36.3 secs   av.it.:  15.2
      thresh= 0.494E-06 alpha_mix =  0.700 |ddv_scf|^2 =  0.144E-12

      iter #   6 total cpu time :    41.7 secs   av.it.:  15.8
      thresh= 0.380E-07 alpha_mix =  0.700 |ddv_scf|^2 =  0.377E-15

      iter #   7 total cpu time :    47.2 secs   av.it.:  16.4
      thresh= 0.194E-08 alpha_mix =  0.700 |ddv_scf|^2 =  0.231E-16

     End of electric fields calculation

          Dielectric constant in cartesian axis 

          (      34.345294131       0.000000000       0.000000000 )
          (       0.000000000      34.345294131       0.000000000 )
          (       0.000000000       0.000000000      34.345294131 )

          Effective charges (d Force / dE) in cartesian axis

           atom      1   Pb 
      Ex  (        5.45835        0.00000        0.00000 )
      Ey  (        0.00000        5.45835        0.00000 )
      Ez  (        0.00000        0.00000        5.45835 )
           atom      2   Te 
      Ex  (       -5.73156        0.00000        0.00000 )
      Ey  (        0.00000       -5.73156        0.00000 )
      Ez  (        0.00000        0.00000       -5.73156 )


     Representation #  1 modes #   1  2  3

     Self-consistent Calculation

      iter #   1 total cpu time :    54.1 secs   av.it.:   5.1
      thresh= 0.100E-01 alpha_mix =  0.700 |ddv_scf|^2 =  0.703E-08

      iter #   2 total cpu time :    59.6 secs   av.it.:  16.4
      thresh= 0.838E-05 alpha_mix =  0.700 |ddv_scf|^2 =  0.117E-08

      iter #   3 total cpu time :    65.2 secs   av.it.:  16.6
      thresh= 0.342E-05 alpha_mix =  0.700 |ddv_scf|^2 =  0.648E-10

      iter #   4 total cpu time :    70.9 secs   av.it.:  16.9
      thresh= 0.805E-06 alpha_mix =  0.700 |ddv_scf|^2 =  0.224E-11

      iter #   5 total cpu time :    76.5 secs   av.it.:  17.0
      thresh= 0.150E-06 alpha_mix =  0.700 |ddv_scf|^2 =  0.192E-13

      iter #   6 total cpu time :    82.0 secs   av.it.:  16.6
      thresh= 0.139E-07 alpha_mix =  0.700 |ddv_scf|^2 =  0.430E-15

      iter #   7 total cpu time :    87.6 secs   av.it.:  16.7
      thresh= 0.207E-08 alpha_mix =  0.700 |ddv_scf|^2 =  0.675E-17

     End of self-consistent calculation

     Convergence has been achieved 


     Representation #  2 modes #   4  5  6

     Self-consistent Calculation

      iter #   1 total cpu time :    92.2 secs   av.it.:   8.5
      thresh= 0.100E-01 alpha_mix =  0.700 |ddv_scf|^2 =  0.373E-06

      iter #   2 total cpu time :    97.9 secs   av.it.:  17.1
      thresh= 0.611E-04 alpha_mix =  0.700 |ddv_scf|^2 =  0.139E-06

      iter #   3 total cpu time :   103.4 secs   av.it.:  16.7
      thresh= 0.373E-04 alpha_mix =  0.700 |ddv_scf|^2 =  0.100E-09

      iter #   4 total cpu time :   109.1 secs   av.it.:  17.3
      thresh= 0.100E-05 alpha_mix =  0.700 |ddv_scf|^2 =  0.565E-11

      iter #   5 total cpu time :   114.8 secs   av.it.:  17.6
      thresh= 0.238E-06 alpha_mix =  0.700 |ddv_scf|^2 =  0.345E-12

      iter #   6 total cpu time :   120.4 secs   av.it.:  16.7
      thresh= 0.587E-07 alpha_mix =  0.700 |ddv_scf|^2 =  0.156E-14

      iter #   7 total cpu time :   126.0 secs   av.it.:  16.9
      thresh= 0.395E-08 alpha_mix =  0.700 |ddv_scf|^2 =  0.874E-16

     End of self-consistent calculation

     Convergence has been achieved 
 
     Number of q in the star =    1
     List of q in the star:
          1   0.000000000   0.000000000   0.000000000

          Dielectric constant in cartesian axis 

          (      34.345294131       0.000000000       0.000000000 )
          (       0.000000000      34.345294131       0.000000000 )
          (       0.000000000       0.000000000      34.345294131 )

          Effective charges (d Force / dE) in cartesian axis

           atom      1   Pb 
      Ex  (        5.45835        0.00000        0.00000 )
      Ey  (        0.00000        5.45835        0.00000 )
      Ez  (        0.00000        0.00000        5.45835 )
           atom      2   Te 
      Ex  (       -5.73156        0.00000        0.00000 )
      Ey  (        0.00000       -5.73156        0.00000 )
      Ez  (        0.00000        0.00000       -5.73156 )

          Effective charges (d P / du) in cartesian axis 

           atom      1   Pb 
      Px  (        5.62270        0.00000        0.00000 )
      Py  (        0.00000        5.62270        0.00000 )
      Pz  (        0.00000        0.00000        5.62270 )
           atom      2   Te 
      Px  (       -5.65962        0.00000        0.00000 )
      Py  (        0.00000       -5.65962        0.00000 )
      Pz  (        0.00000        0.00000       -5.65962 )

     Diagonalizing the dynamical matrix

     q = (    0.000000000   0.000000000   0.000000000 ) 

 **************************************************************************
     omega( 1) =      -0.083529 [THz] =      -2.786234 [cm-1]
     omega( 2) =      -0.083529 [THz] =      -2.786234 [cm-1]
     omega( 3) =      -0.083529 [THz] =      -2.786234 [cm-1]
     omega( 4) =       0.980430 [THz] =      32.703614 [cm-1]
     omega( 5) =       0.980430 [THz] =      32.703614 [cm-1]
     omega( 6) =       0.980430 [THz] =      32.703614 [cm-1]
 **************************************************************************

     Mode symmetry, O_h (m-3m)  point group:

     omega(  1 -  3) =         -2.8  [cm-1]   --> T_1u G_15  G_4- I  
     omega(  4 -  6) =         32.7  [cm-1]   --> T_1u G_15  G_4- I  

 **************************************************************************

     Calculation of q =    0.1666667   0.1666667  -0.1666667
 
     Parallelization info
     --------------------
     sticks:   dense  smooth     PW     G-vecs:    dense   smooth      PW
     Min         254     103     30                 9302     2367     372
     Max         255     104     31                 9306     2385     375
     Sum        3055    1237    361               111643    28475    4477
 


     bravais-lattice index     =            0
     lattice parameter (alat)  =      12.1676  a.u.
     unit-cell volume          =     450.3505 (a.u.)^3
     number of atoms/cell      =            2
     number of atomic types    =            2
     number of electrons       =        20.00
     number of Kohn-Sham states=           10
     kinetic-energy cutoff     =      60.0000  Ry
     charge density cutoff     =     600.0000  Ry
     Exchange-correlation      = PBESOL ( 1 410 8 0)
     EXX-fraction              =        0.00

     celldm(1)=  12.167562  celldm(2)=   0.000000  celldm(3)=   0.000000
     celldm(4)=   0.000000  celldm(5)=   0.000000  celldm(6)=   0.000000

     crystal axes: (cart. coord. in units of alat)
               a(1) = (   0.000000   0.500000   0.500000 )  
               a(2) = (   0.500000   0.000000   0.500000 )  
               a(3) = (   0.500000   0.500000   0.000000 )  

     reciprocal axes: (cart. coord. in units 2 pi/alat)
               b(1) = ( -1.000000  1.000000  1.000000 )  
               b(2) = (  1.000000 -1.000000  1.000000 )  
               b(3) = (  1.000000  1.000000 -1.000000 )  


     PseudoPot. # 1 for Pb read from file:
     /work/02599/asmiller/pseudo/gbrv/pbe_GBRV/pb_pbe_v1.uspp.F.UPF
     MD5 check sum: a5f44a0c8587cfbb5a05efeead6b9227
     Pseudo is Ultrasoft + core correction, Zval = 14.0
     Generated by new atomic code, or converted to UPF format
     Using radial grid of  899 points,  6 beta functions with: 
                l(1) =   0
                l(2) =   0
                l(3) =   1
                l(4) =   1
                l(5) =   2
                l(6) =   2
     Q(r) pseudized with  6 coefficients,  rinner =    1.000   1.000   1.000
                                                       1.000   1.000

     PseudoPot. # 2 for Te read from file:
     /work/02599/asmiller/pseudo/gbrv/pbe_GBRV/te_pbe_v1.uspp.F.UPF
     MD5 check sum: 749656373d74338a59c146dbd702c29e
     Pseudo is Ultrasoft + core correction, Zval =  6.0
     Generated by new atomic code, or converted to UPF format
     Using radial grid of  891 points,  5 beta functions with: 
                l(1) =   0
                l(2) =   0
                l(3) =   1
                l(4) =   1
                l(5) =   2
     Q(r) pseudized with  6 coefficients,  rinner =    1.800   1.800   1.800
                                                       1.800   1.800

     atomic species   valence    mass     pseudopotential
        Pb            14.00   207.20000     Pb( 1.00)
        Te             6.00   127.60000     Te( 1.00)

     48 Sym. Ops., with inversion, found



   Cartesian axes

     site n.     atom                  positions (alat units)
         1           Pb  tau(   1) = (   0.0000000   0.0000000   0.0000000  )
         2           Te  tau(   2) = (   0.5000000   0.5000000   0.5000000  )

     number of k points=   112

     Number of k-points >= 100: set verbosity='high' to print them.

     Dense  grid:   111643 G-vectors     FFT dimensions: (  72,  72,  72)

     Smooth grid:    28475 G-vectors     FFT dimensions: (  45,  45,  45)

     Largest allocated arrays     est. size (Mb)     dimensions
        Kohn-Sham Wavefunctions         0.05 Mb     (    310,   10)
        NL pseudopotentials             0.15 Mb     (    310,   31)
        Each V/rho on FFT grid          0.47 Mb     (  31104)
        Each G-vector array             0.07 Mb     (   9303)
        G-vector shells                 0.01 Mb     (    739)
     Largest temporary arrays     est. size (Mb)     dimensions
        Auxiliary wavefunctions         0.19 Mb     (    310,   40)
        Each subspace H/S matrix        0.02 Mb     (  40,  40)
        Each <psi_i|beta_j> matrix      0.00 Mb     (     31,   10)

     The potential is recalculated from file :
     ./_ph0/PbTe.save/charge-density.dat


     negative rho (up, down):  0.157E-01 0.000E+00
     Starting wfc are   13 atomic wfcs

     total cpu time spent up to now is        0.7 secs

     per-process dynamical memory:    65.1 Mb

     Band Structure Calculation
     Davidson diagonalization with overlap

     ethr =  5.00E-11,  avg # of iterations = 30.8

     total cpu time spent up to now is       11.2 secs

     End of band structure calculation

     Number of k-points >= 100: set verbosity='high' to print the bands.

     Writing output data file PbTe.save

                                                                                

     bravais-lattice index     =            0
     lattice parameter (alat)  =      12.1676  a.u.
     unit-cell volume          =     450.3505 (a.u.)^3
     number of atoms/cell      =            2
     number of atomic types    =            2
     kinetic-energy cut-off    =      60.0000  Ry
     charge density cut-off    =     600.0000  Ry
     convergence threshold     =      1.0E-16
     beta                      =       0.7000
     number of iterations used =            4
     Exchange-correlation      = PBESOL ( 1 410 8 0)
     EXX-fraction              =        0.00


     celldm(1)=   12.16756  celldm(2)=    0.00000  celldm(3)=    0.00000
     celldm(4)=    0.00000  celldm(5)=    0.00000  celldm(6)=    0.00000

     crystal axes: (cart. coord. in units of alat)
               a(1) = (  0.0000  0.5000  0.5000 )  
               a(2) = (  0.5000  0.0000  0.5000 )  
               a(3) = (  0.5000  0.5000  0.0000 )  

     reciprocal axes: (cart. coord. in units 2 pi/alat)
               b(1) = ( -1.0000  1.0000  1.0000 )  
               b(2) = (  1.0000 -1.0000  1.0000 )  
               b(3) = (  1.0000  1.0000 -1.0000 )  


     Atoms inside the unit cell: 

   Cartesian axes

     site n.  atom      mass           positions (alat units)
        1        Pb 207.2000   tau( 1) = (    0.00000    0.00000    0.00000  )
        2        Te 127.6000   tau( 2) = (    0.50000    0.50000    0.50000  )

     Computing dynamical matrix for 
                    q = (   0.1666667   0.1666667  -0.1666667 )
 
      6 Sym.Ops. (no q -> -q+G )


     G cutoff = 2250.0835  (   9303 G-vectors)     FFT grid: ( 72, 72, 72)
     G cutoff =  900.0334  (   2385 G-vectors)  smooth grid: ( 45, 45, 45)
     number of k points=   112

     PseudoPot. # 1 for Pb read from file:
     /work/02599/asmiller/pseudo/gbrv/pbe_GBRV/pb_pbe_v1.uspp.F.UPF
     MD5 check sum: a5f44a0c8587cfbb5a05efeead6b9227
     Pseudo is Ultrasoft + core correction, Zval = 14.0
     Generated by new atomic code, or converted to UPF format
     Using radial grid of  899 points,  6 beta functions with: 
                l(1) =   0
                l(2) =   0
                l(3) =   1
                l(4) =   1
                l(5) =   2
                l(6) =   2
     Q(r) pseudized with  6 coefficients,  rinner =    1.000   1.000   1.000
                                                       1.000   1.000

     PseudoPot. # 2 for Te read from file:
     /work/02599/asmiller/pseudo/gbrv/pbe_GBRV/te_pbe_v1.uspp.F.UPF
     MD5 check sum: 749656373d74338a59c146dbd702c29e
     Pseudo is Ultrasoft + core correction, Zval =  6.0
     Generated by new atomic code, or converted to UPF format
     Using radial grid of  891 points,  5 beta functions with: 
                l(1) =   0
                l(2) =   0
                l(3) =   1
                l(4) =   1
                l(5) =   2
     Q(r) pseudized with  6 coefficients,  rinner =    1.800   1.800   1.800
                                                       1.800   1.800


     Atomic displacements:
     There are   4 irreducible representations

     Representation     1      1 modes -A_1  L_1 To be done

     Representation     2      1 modes -A_1  L_1 To be done

     Representation     3      2 modes -E    L_3 To be done

     Representation     4      2 modes -E    L_3 To be done



     Alpha used in Ewald sum =   2.8000

     negative rho (up, down):  0.157E-01 0.000E+00
     PHONON       :  2m14.60s CPU     2m21.82s WALL



     Representation #  1 mode #   1

     Self-consistent Calculation

      iter #   1 total cpu time :   144.1 secs   av.it.:   6.3
      thresh= 0.100E-01 alpha_mix =  0.700 |ddv_scf|^2 =  0.965E-03

      iter #   2 total cpu time :   147.8 secs   av.it.:  13.4
      thresh= 0.311E-02 alpha_mix =  0.700 |ddv_scf|^2 =  0.111E+00

      iter #   3 total cpu time :   150.9 secs   av.it.:  10.9
      thresh= 0.100E-01 alpha_mix =  0.700 |ddv_scf|^2 =  0.637E-07

      iter #   4 total cpu time :   155.3 secs   av.it.:  16.5
      thresh= 0.252E-04 alpha_mix =  0.700 |ddv_scf|^2 =  0.128E-06

      iter #   5 total cpu time :   159.2 secs   av.it.:  14.8
      thresh= 0.358E-04 alpha_mix =  0.700 |ddv_scf|^2 =  0.491E-08

      iter #   6 total cpu time :   163.0 secs   av.it.:  13.8
      thresh= 0.701E-05 alpha_mix =  0.700 |ddv_scf|^2 =  0.498E-09

      iter #   7 total cpu time :   166.6 secs   av.it.:  12.9
      thresh= 0.223E-05 alpha_mix =  0.700 |ddv_scf|^2 =  0.473E-11

      iter #   8 total cpu time :   170.4 secs   av.it.:  14.1
      thresh= 0.218E-06 alpha_mix =  0.700 |ddv_scf|^2 =  0.525E-12

      iter #   9 total cpu time :   174.1 secs   av.it.:  13.7
      thresh= 0.725E-07 alpha_mix =  0.700 |ddv_scf|^2 =  0.219E-11

      iter #  10 total cpu time :   177.6 secs   av.it.:  12.1
      thresh= 0.148E-06 alpha_mix =  0.700 |ddv_scf|^2 =  0.149E-13

      iter #  11 total cpu time :   181.4 secs   av.it.:  14.1
      thresh= 0.122E-07 alpha_mix =  0.700 |ddv_scf|^2 =  0.238E-15

      iter #  12 total cpu time :   185.3 secs   av.it.:  14.6
      thresh= 0.154E-08 alpha_mix =  0.700 |ddv_scf|^2 =  0.139E-16

     End of self-consistent calculation

     Convergence has been achieved 


     Representation #  2 mode #   2

     Self-consistent Calculation

      iter #   1 total cpu time :   188.5 secs   av.it.:  10.0
      thresh= 0.100E-01 alpha_mix =  0.700 |ddv_scf|^2 =  0.514E-02

      iter #   2 total cpu time :   192.1 secs   av.it.:  13.4
      thresh= 0.717E-02 alpha_mix =  0.700 |ddv_scf|^2 =  0.593E+00

      iter #   3 total cpu time :   195.6 secs   av.it.:  12.4
      thresh= 0.100E-01 alpha_mix =  0.700 |ddv_scf|^2 =  0.556E-05

      iter #   4 total cpu time :   199.7 secs   av.it.:  15.5
      thresh= 0.236E-03 alpha_mix =  0.700 |ddv_scf|^2 =  0.196E-05

      iter #   5 total cpu time :   203.8 secs   av.it.:  15.1
      thresh= 0.140E-03 alpha_mix =  0.700 |ddv_scf|^2 =  0.540E-08

      iter #   6 total cpu time :   208.0 secs   av.it.:  15.6
      thresh= 0.735E-05 alpha_mix =  0.700 |ddv_scf|^2 =  0.106E-08

      iter #   7 total cpu time :   211.8 secs   av.it.:  13.9
      thresh= 0.326E-05 alpha_mix =  0.700 |ddv_scf|^2 =  0.134E-09

      iter #   8 total cpu time :   215.4 secs   av.it.:  13.2
      thresh= 0.116E-05 alpha_mix =  0.700 |ddv_scf|^2 =  0.319E-10

      iter #   9 total cpu time :   218.9 secs   av.it.:  12.7
      thresh= 0.565E-06 alpha_mix =  0.700 |ddv_scf|^2 =  0.134E-13

      iter #  10 total cpu time :   223.1 secs   av.it.:  15.6
      thresh= 0.116E-07 alpha_mix =  0.700 |ddv_scf|^2 =  0.497E-12

      iter #  11 total cpu time :   225.9 secs   av.it.:   9.5
      thresh= 0.705E-07 alpha_mix =  0.700 |ddv_scf|^2 =  0.891E-15

      iter #  12 total cpu time :   230.0 secs   av.it.:  15.4
      thresh= 0.298E-08 alpha_mix =  0.700 |ddv_scf|^2 =  0.140E-15

      iter #  13 total cpu time :   233.9 secs   av.it.:  14.4
      thresh= 0.118E-08 alpha_mix =  0.700 |ddv_scf|^2 =  0.342E-16

     End of self-consistent calculation

     Convergence has been achieved 


     Representation #  3 modes #   3  4

     Self-consistent Calculation

      iter #   1 total cpu time :   237.7 secs   av.it.:   5.0
      thresh= 0.100E-01 alpha_mix =  0.700 |ddv_scf|^2 =  0.165E-07

      iter #   2 total cpu time :   246.6 secs   av.it.:  17.2
      thresh= 0.128E-04 alpha_mix =  0.700 |ddv_scf|^2 =  0.222E-08

      iter #   3 total cpu time :   255.7 secs   av.it.:  17.6
      thresh= 0.472E-05 alpha_mix =  0.700 |ddv_scf|^2 =  0.132E-09

      iter #   4 total cpu time :   264.8 secs   av.it.:  17.8
      thresh= 0.115E-05 alpha_mix =  0.700 |ddv_scf|^2 =  0.699E-11

      iter #   5 total cpu time :   273.9 secs   av.it.:  17.6
      thresh= 0.264E-06 alpha_mix =  0.700 |ddv_scf|^2 =  0.413E-13

      iter #   6 total cpu time :   283.0 secs   av.it.:  17.8
      thresh= 0.203E-07 alpha_mix =  0.700 |ddv_scf|^2 =  0.955E-15

      iter #   7 total cpu time :   291.9 secs   av.it.:  17.4
      thresh= 0.309E-08 alpha_mix =  0.700 |ddv_scf|^2 =  0.166E-16

     End of self-consistent calculation

     Convergence has been achieved 


     Representation #  4 modes #   5  6

     Self-consistent Calculation

      iter #   1 total cpu time :   297.6 secs   av.it.:   9.1
      thresh= 0.100E-01 alpha_mix =  0.700 |ddv_scf|^2 =  0.846E-06

      iter #   2 total cpu time :   306.8 secs   av.it.:  17.8
      thresh= 0.920E-04 alpha_mix =  0.700 |ddv_scf|^2 =  0.302E-06

      iter #   3 total cpu time :   315.8 secs   av.it.:  17.3
      thresh= 0.550E-04 alpha_mix =  0.700 |ddv_scf|^2 =  0.209E-09

      iter #   4 total cpu time :   325.1 secs   av.it.:  18.1
      thresh= 0.145E-05 alpha_mix =  0.700 |ddv_scf|^2 =  0.128E-10

      iter #   5 total cpu time :   334.5 secs   av.it.:  18.2
      thresh= 0.358E-06 alpha_mix =  0.700 |ddv_scf|^2 =  0.726E-12

      iter #   6 total cpu time :   343.5 secs   av.it.:  17.6
      thresh= 0.852E-07 alpha_mix =  0.700 |ddv_scf|^2 =  0.322E-14

      iter #   7 total cpu time :   352.4 secs   av.it.:  17.5
      thresh= 0.567E-08 alpha_mix =  0.700 |ddv_scf|^2 =  0.170E-15

      iter #   8 total cpu time :   361.4 secs   av.it.:  17.5
      thresh= 0.131E-08 alpha_mix =  0.700 |ddv_scf|^2 =  0.124E-17

     End of self-consistent calculation

     Convergence has been achieved 
 
     Number of q in the star =    8
     List of q in the star:
          1   0.166666667   0.166666667  -0.166666667
          2   0.166666667  -0.166666667  -0.166666667
          3   0.166666667   0.166666667   0.166666667
          4  -0.166666667  -0.166666667   0.166666667
          5  -0.166666667   0.166666667  -0.166666667
          6  -0.166666667  -0.166666667  -0.166666667
          7  -0.166666667   0.166666667   0.166666667
          8   0.166666667  -0.166666667   0.166666667

     Diagonalizing the dynamical matrix

     q = (    0.166666667   0.166666667  -0.166666667 ) 

 **************************************************************************
     omega( 1) =       0.840620 [THz] =      28.040079 [cm-1]
     omega( 2) =       0.840620 [THz] =      28.040079 [cm-1]
     omega( 3) =       1.168055 [THz] =      38.962117 [cm-1]
     omega( 4) =       2.428899 [THz] =      81.019344 [cm-1]
     omega( 5) =       2.428899 [THz] =      81.019344 [cm-1]
     omega( 6) =       3.486128 [THz] =     116.284728 [cm-1]
 **************************************************************************

     Mode symmetry, C_3v (3m)   point group:

     omega(  1 -  2) =         28.0  [cm-1]   --> E    L_3           
     omega(  3 -  3) =         39.0  [cm-1]   --> A_1  L_1           
     omega(  4 -  5) =         81.0  [cm-1]   --> E    L_3           
     omega(  6 -  6) =        116.3  [cm-1]   --> A_1  L_1           

 **************************************************************************

     Calculation of q =    0.3333333   0.3333333  -0.3333333
 
     Parallelization info
     --------------------
     sticks:   dense  smooth     PW     G-vecs:    dense   smooth      PW
     Min         254     103     30                 9302     2367     372
     Max         255     104     31                 9306     2385     375
     Sum        3055    1237    361               111643    28475    4477
 


     bravais-lattice index     =            0
     lattice parameter (alat)  =      12.1676  a.u.
     unit-cell volume          =     450.3505 (a.u.)^3
     number of atoms/cell      =            2
     number of atomic types    =            2
     number of electrons       =        20.00
     number of Kohn-Sham states=           10
     kinetic-energy cutoff     =      60.0000  Ry
     charge density cutoff     =     600.0000  Ry
     Exchange-correlation      = PBESOL ( 1 410 8 0)
     EXX-fraction              =        0.00

     celldm(1)=  12.167562  celldm(2)=   0.000000  celldm(3)=   0.000000
     celldm(4)=   0.000000  celldm(5)=   0.000000  celldm(6)=   0.000000

     crystal axes: (cart. coord. in units of alat)
               a(1) = (   0.000000   0.500000   0.500000 )  
               a(2) = (   0.500000   0.000000   0.500000 )  
               a(3) = (   0.500000   0.500000   0.000000 )  

     reciprocal axes: (cart. coord. in units 2 pi/alat)
               b(1) = ( -1.000000  1.000000  1.000000 )  
               b(2) = (  1.000000 -1.000000  1.000000 )  
               b(3) = (  1.000000  1.000000 -1.000000 )  


     PseudoPot. # 1 for Pb read from file:
     /work/02599/asmiller/pseudo/gbrv/pbe_GBRV/pb_pbe_v1.uspp.F.UPF
     MD5 check sum: a5f44a0c8587cfbb5a05efeead6b9227
     Pseudo is Ultrasoft + core correction, Zval = 14.0
     Generated by new atomic code, or converted to UPF format
     Using radial grid of  899 points,  6 beta functions with: 
                l(1) =   0
                l(2) =   0
                l(3) =   1
                l(4) =   1
                l(5) =   2
                l(6) =   2
     Q(r) pseudized with  6 coefficients,  rinner =    1.000   1.000   1.000
                                                       1.000   1.000

     PseudoPot. # 2 for Te read from file:
     /work/02599/asmiller/pseudo/gbrv/pbe_GBRV/te_pbe_v1.uspp.F.UPF
     MD5 check sum: 749656373d74338a59c146dbd702c29e
     Pseudo is Ultrasoft + core correction, Zval =  6.0
     Generated by new atomic code, or converted to UPF format
     Using radial grid of  891 points,  5 beta functions with: 
                l(1) =   0
                l(2) =   0
                l(3) =   1
                l(4) =   1
                l(5) =   2
     Q(r) pseudized with  6 coefficients,  rinner =    1.800   1.800   1.800
                                                       1.800   1.800

     atomic species   valence    mass     pseudopotential
        Pb            14.00   207.20000     Pb( 1.00)
        Te             6.00   127.60000     Te( 1.00)

     48 Sym. Ops., with inversion, found



   Cartesian axes

     site n.     atom                  positions (alat units)
         1           Pb  tau(   1) = (   0.0000000   0.0000000   0.0000000  )
         2           Te  tau(   2) = (   0.5000000   0.5000000   0.5000000  )

     number of k points=   112

     Number of k-points >= 100: set verbosity='high' to print them.

     Dense  grid:   111643 G-vectors     FFT dimensions: (  72,  72,  72)

     Smooth grid:    28475 G-vectors     FFT dimensions: (  45,  45,  45)

     Largest allocated arrays     est. size (Mb)     dimensions
        Kohn-Sham Wavefunctions         0.05 Mb     (    301,   10)
        NL pseudopotentials             0.14 Mb     (    301,   31)
        Each V/rho on FFT grid          0.47 Mb     (  31104)
        Each G-vector array             0.07 Mb     (   9303)
        G-vector shells                 0.01 Mb     (    739)
     Largest temporary arrays     est. size (Mb)     dimensions
        Auxiliary wavefunctions         0.18 Mb     (    301,   40)
        Each subspace H/S matrix        0.02 Mb     (  40,  40)
        Each <psi_i|beta_j> matrix      0.00 Mb     (     31,   10)

     The potential is recalculated from file :
     ./_ph0/PbTe.save/charge-density.dat


     negative rho (up, down):  0.157E-01 0.000E+00
     Starting wfc are   13 atomic wfcs

     total cpu time spent up to now is       12.2 secs

     per-process dynamical memory:    71.6 Mb

     Band Structure Calculation
     Davidson diagonalization with overlap

     ethr =  5.00E-11,  avg # of iterations = 30.8

     total cpu time spent up to now is       22.8 secs

     End of band structure calculation

     Number of k-points >= 100: set verbosity='high' to print the bands.

     Writing output data file PbTe.save

                                                                                

     bravais-lattice index     =            0
     lattice parameter (alat)  =      12.1676  a.u.
     unit-cell volume          =     450.3505 (a.u.)^3
     number of atoms/cell      =            2
     number of atomic types    =            2
     kinetic-energy cut-off    =      60.0000  Ry
     charge density cut-off    =     600.0000  Ry
     convergence threshold     =      1.0E-16
     beta                      =       0.7000
     number of iterations used =            4
     Exchange-correlation      = PBESOL ( 1 410 8 0)
     EXX-fraction              =        0.00


     celldm(1)=   12.16756  celldm(2)=    0.00000  celldm(3)=    0.00000
     celldm(4)=    0.00000  celldm(5)=    0.00000  celldm(6)=    0.00000

     crystal axes: (cart. coord. in units of alat)
               a(1) = (  0.0000  0.5000  0.5000 )  
               a(2) = (  0.5000  0.0000  0.5000 )  
               a(3) = (  0.5000  0.5000  0.0000 )  

     reciprocal axes: (cart. coord. in units 2 pi/alat)
               b(1) = ( -1.0000  1.0000  1.0000 )  
               b(2) = (  1.0000 -1.0000  1.0000 )  
               b(3) = (  1.0000  1.0000 -1.0000 )  


     Atoms inside the unit cell: 

   Cartesian axes

     site n.  atom      mass           positions (alat units)
        1        Pb 207.2000   tau( 1) = (    0.00000    0.00000    0.00000  )
        2        Te 127.6000   tau( 2) = (    0.50000    0.50000    0.50000  )

     Computing dynamical matrix for 
                    q = (   0.3333333   0.3333333  -0.3333333 )
 
      6 Sym.Ops. (no q -> -q+G )


     G cutoff = 2250.0835  (   9303 G-vectors)     FFT grid: ( 72, 72, 72)
     G cutoff =  900.0334  (   2385 G-vectors)  smooth grid: ( 45, 45, 45)
     number of k points=   112

     PseudoPot. # 1 for Pb read from file:
     /work/02599/asmiller/pseudo/gbrv/pbe_GBRV/pb_pbe_v1.uspp.F.UPF
     MD5 check sum: a5f44a0c8587cfbb5a05efeead6b9227
     Pseudo is Ultrasoft + core correction, Zval = 14.0
     Generated by new atomic code, or converted to UPF format
     Using radial grid of  899 points,  6 beta functions with: 
                l(1) =   0
                l(2) =   0
                l(3) =   1
                l(4) =   1
                l(5) =   2
                l(6) =   2
     Q(r) pseudized with  6 coefficients,  rinner =    1.000   1.000   1.000
                                                       1.000   1.000

     PseudoPot. # 2 for Te read from file:
     /work/02599/asmiller/pseudo/gbrv/pbe_GBRV/te_pbe_v1.uspp.F.UPF
     MD5 check sum: 749656373d74338a59c146dbd702c29e
     Pseudo is Ultrasoft + core correction, Zval =  6.0
     Generated by new atomic code, or converted to UPF format
     Using radial grid of  891 points,  5 beta functions with: 
                l(1) =   0
                l(2) =   0
                l(3) =   1
                l(4) =   1
                l(5) =   2
     Q(r) pseudized with  6 coefficients,  rinner =    1.800   1.800   1.800
                                                       1.800   1.800


     Atomic displacements:
     There are   4 irreducible representations

     Representation     1      1 modes -A_1  L_1 To be done

     Representation     2      1 modes -A_1  L_1 To be done

     Representation     3      2 modes -E    L_3 To be done

     Representation     4      2 modes -E    L_3 To be done



     Alpha used in Ewald sum =   2.8000

     negative rho (up, down):  0.157E-01 0.000E+00
     PHONON       :  5m58.57s CPU     6m16.91s WALL



     Representation #  1 mode #   1

     Self-consistent Calculation

      iter #   1 total cpu time :   379.0 secs   av.it.:   5.7
      thresh= 0.100E-01 alpha_mix =  0.700 |ddv_scf|^2 =  0.419E-04

      iter #   2 total cpu time :   383.1 secs   av.it.:  14.9
      thresh= 0.647E-03 alpha_mix =  0.700 |ddv_scf|^2 =  0.829E-03

      iter #   3 total cpu time :   386.6 secs   av.it.:  12.0
      thresh= 0.288E-02 alpha_mix =  0.700 |ddv_scf|^2 =  0.345E-06

      iter #   4 total cpu time :   390.8 secs   av.it.:  15.6
      thresh= 0.588E-04 alpha_mix =  0.700 |ddv_scf|^2 =  0.169E-07

      iter #   5 total cpu time :   394.9 secs   av.it.:  15.0
      thresh= 0.130E-04 alpha_mix =  0.700 |ddv_scf|^2 =  0.320E-09

      iter #   6 total cpu time :   399.1 secs   av.it.:  15.2
      thresh= 0.179E-05 alpha_mix =  0.700 |ddv_scf|^2 =  0.302E-10

      iter #   7 total cpu time :   403.2 secs   av.it.:  15.2
      thresh= 0.549E-06 alpha_mix =  0.700 |ddv_scf|^2 =  0.207E-12

      iter #   8 total cpu time :   407.7 secs   av.it.:  16.4
      thresh= 0.455E-07 alpha_mix =  0.700 |ddv_scf|^2 =  0.651E-13

      iter #   9 total cpu time :   412.0 secs   av.it.:  15.9
      thresh= 0.255E-07 alpha_mix =  0.700 |ddv_scf|^2 =  0.123E-13

      iter #  10 total cpu time :   416.1 secs   av.it.:  14.9
      thresh= 0.111E-07 alpha_mix =  0.700 |ddv_scf|^2 =  0.749E-14

      iter #  11 total cpu time :   419.9 secs   av.it.:  13.9
      thresh= 0.866E-08 alpha_mix =  0.700 |ddv_scf|^2 =  0.178E-14

      iter #  12 total cpu time :   424.0 secs   av.it.:  14.9
      thresh= 0.422E-08 alpha_mix =  0.700 |ddv_scf|^2 =  0.119E-15

      iter #  13 total cpu time :   428.2 secs   av.it.:  15.2
      thresh= 0.109E-08 alpha_mix =  0.700 |ddv_scf|^2 =  0.387E-16

     End of self-consistent calculation

     Convergence has been achieved 


     Representation #  2 mode #   2

     Self-consistent Calculation

      iter #   1 total cpu time :   431.4 secs   av.it.:  10.0
      thresh= 0.100E-01 alpha_mix =  0.700 |ddv_scf|^2 =  0.253E-03

      iter #   2 total cpu time :   435.5 secs   av.it.:  15.0
      thresh= 0.159E-02 alpha_mix =  0.700 |ddv_scf|^2 =  0.502E-02

      iter #   3 total cpu time :   438.9 secs   av.it.:  11.7
      thresh= 0.708E-02 alpha_mix =  0.700 |ddv_scf|^2 =  0.402E-05

      iter #   4 total cpu time :   443.1 secs   av.it.:  15.3
      thresh= 0.200E-03 alpha_mix =  0.700 |ddv_scf|^2 =  0.122E-06

      iter #   5 total cpu time :   447.2 secs   av.it.:  14.8
      thresh= 0.350E-04 alpha_mix =  0.700 |ddv_scf|^2 =  0.853E-08

      iter #   6 total cpu time :   451.4 secs   av.it.:  15.4
      thresh= 0.924E-05 alpha_mix =  0.700 |ddv_scf|^2 =  0.251E-09

      iter #   7 total cpu time :   455.5 secs   av.it.:  15.1
      thresh= 0.159E-05 alpha_mix =  0.700 |ddv_scf|^2 =  0.520E-11

      iter #   8 total cpu time :   459.8 secs   av.it.:  15.4
      thresh= 0.228E-06 alpha_mix =  0.700 |ddv_scf|^2 =  0.971E-13

      iter #   9 total cpu time :   464.0 secs   av.it.:  15.3
      thresh= 0.312E-07 alpha_mix =  0.700 |ddv_scf|^2 =  0.149E-13

      iter #  10 total cpu time :   468.2 secs   av.it.:  15.5
      thresh= 0.122E-07 alpha_mix =  0.700 |ddv_scf|^2 =  0.488E-13

      iter #  11 total cpu time :   471.9 secs   av.it.:  12.9
      thresh= 0.221E-07 alpha_mix =  0.700 |ddv_scf|^2 =  0.390E-14

      iter #  12 total cpu time :   475.8 secs   av.it.:  14.2
      thresh= 0.624E-08 alpha_mix =  0.700 |ddv_scf|^2 =  0.467E-16

     End of self-consistent calculation

     Convergence has been achieved 


     Representation #  3 modes #   3  4

     Self-consistent Calculation

      iter #   1 total cpu time :   479.5 secs   av.it.:   4.4
      thresh= 0.100E-01 alpha_mix =  0.700 |ddv_scf|^2 =  0.189E-07

      iter #   2 total cpu time :   488.5 secs   av.it.:  17.0
      thresh= 0.137E-04 alpha_mix =  0.700 |ddv_scf|^2 =  0.200E-08

      iter #   3 total cpu time :   497.7 secs   av.it.:  17.6
      thresh= 0.447E-05 alpha_mix =  0.700 |ddv_scf|^2 =  0.938E-10

      iter #   4 total cpu time :   507.2 secs   av.it.:  17.8
      thresh= 0.968E-06 alpha_mix =  0.700 |ddv_scf|^2 =  0.105E-10

      iter #   5 total cpu time :   516.4 secs   av.it.:  17.5
      thresh= 0.325E-06 alpha_mix =  0.700 |ddv_scf|^2 =  0.636E-13

      iter #   6 total cpu time :   525.7 secs   av.it.:  17.8
      thresh= 0.252E-07 alpha_mix =  0.700 |ddv_scf|^2 =  0.111E-14

      iter #   7 total cpu time :   534.9 secs   av.it.:  17.4
      thresh= 0.332E-08 alpha_mix =  0.700 |ddv_scf|^2 =  0.324E-16

     End of self-consistent calculation

     Convergence has been achieved 


     Representation #  4 modes #   5  6

     Self-consistent Calculation

      iter #   1 total cpu time :   540.8 secs   av.it.:   9.1
      thresh= 0.100E-01 alpha_mix =  0.700 |ddv_scf|^2 =  0.897E-06

      iter #   2 total cpu time :   550.2 secs   av.it.:  17.9
      thresh= 0.947E-04 alpha_mix =  0.700 |ddv_scf|^2 =  0.330E-06

      iter #   3 total cpu time :   559.3 secs   av.it.:  17.2
      thresh= 0.574E-04 alpha_mix =  0.700 |ddv_scf|^2 =  0.189E-09

      iter #   4 total cpu time :   568.8 secs   av.it.:  18.2
      thresh= 0.137E-05 alpha_mix =  0.700 |ddv_scf|^2 =  0.151E-10

      iter #   5 total cpu time :   578.3 secs   av.it.:  18.1
      thresh= 0.388E-06 alpha_mix =  0.700 |ddv_scf|^2 =  0.683E-12

      iter #   6 total cpu time :   587.6 secs   av.it.:  17.5
      thresh= 0.826E-07 alpha_mix =  0.700 |ddv_scf|^2 =  0.299E-14

      iter #   7 total cpu time :   596.8 secs   av.it.:  17.5
      thresh= 0.547E-08 alpha_mix =  0.700 |ddv_scf|^2 =  0.142E-15

      iter #   8 total cpu time :   606.0 secs   av.it.:  17.6
      thresh= 0.119E-08 alpha_mix =  0.700 |ddv_scf|^2 =  0.316E-17

     End of self-consistent calculation

     Convergence has been achieved 
 
     Number of q in the star =    8
     List of q in the star:
          1   0.333333333   0.333333333  -0.333333333
          2   0.333333333  -0.333333333  -0.333333333
          3   0.333333333   0.333333333   0.333333333
          4  -0.333333333  -0.333333333   0.333333333
          5  -0.333333333   0.333333333  -0.333333333
          6  -0.333333333  -0.333333333  -0.333333333
          7  -0.333333333   0.333333333   0.333333333
          8   0.333333333  -0.333333333   0.333333333

     Diagonalizing the dynamical matrix

     q = (    0.333333333   0.333333333  -0.333333333 ) 

 **************************************************************************
     omega( 1) =       1.462441 [THz] =      48.781781 [cm-1]
     omega( 2) =       1.462441 [THz] =      48.781781 [cm-1]
     omega( 3) =       2.139254 [THz] =      71.357835 [cm-1]
     omega( 4) =       2.852520 [THz] =      95.149834 [cm-1]
     omega( 5) =       2.852520 [THz] =      95.149834 [cm-1]
     omega( 6) =       3.480974 [THz] =     116.112801 [cm-1]
 **************************************************************************

     Mode symmetry, C_3v (3m)   point group:

     omega(  1 -  2) =         48.8  [cm-1]   --> E    L_3           
     omega(  3 -  3) =         71.4  [cm-1]   --> A_1  L_1           
     omega(  4 -  5) =         95.1  [cm-1]   --> E    L_3           
     omega(  6 -  6) =        116.1  [cm-1]   --> A_1  L_1           

 **************************************************************************

     Calculation of q =   -0.5000000  -0.5000000   0.5000000
 
     Parallelization info
     --------------------
     sticks:   dense  smooth     PW     G-vecs:    dense   smooth      PW
     Min         254     103     32                 9302     2368     430
     Max         255     104     34                 9306     2379     431
     Sum        3055    1237    397               111643    28475    5161
 


     bravais-lattice index     =            0
     lattice parameter (alat)  =      12.1676  a.u.
     unit-cell volume          =     450.3505 (a.u.)^3
     number of atoms/cell      =            2
     number of atomic types    =            2
     number of electrons       =        20.00
     number of Kohn-Sham states=           10
     kinetic-energy cutoff     =      60.0000  Ry
     charge density cutoff     =     600.0000  Ry
     Exchange-correlation      = PBESOL ( 1 410 8 0)
     EXX-fraction              =        0.00

     celldm(1)=  12.167562  celldm(2)=   0.000000  celldm(3)=   0.000000
     celldm(4)=   0.000000  celldm(5)=   0.000000  celldm(6)=   0.000000

     crystal axes: (cart. coord. in units of alat)
               a(1) = (   0.000000   0.500000   0.500000 )  
               a(2) = (   0.500000   0.000000   0.500000 )  
               a(3) = (   0.500000   0.500000   0.000000 )  

     reciprocal axes: (cart. coord. in units 2 pi/alat)
               b(1) = ( -1.000000  1.000000  1.000000 )  
               b(2) = (  1.000000 -1.000000  1.000000 )  
               b(3) = (  1.000000  1.000000 -1.000000 )  


     PseudoPot. # 1 for Pb read from file:
     /work/02599/asmiller/pseudo/gbrv/pbe_GBRV/pb_pbe_v1.uspp.F.UPF
     MD5 check sum: a5f44a0c8587cfbb5a05efeead6b9227
     Pseudo is Ultrasoft + core correction, Zval = 14.0
     Generated by new atomic code, or converted to UPF format
     Using radial grid of  899 points,  6 beta functions with: 
                l(1) =   0
                l(2) =   0
                l(3) =   1
                l(4) =   1
                l(5) =   2
                l(6) =   2
     Q(r) pseudized with  6 coefficients,  rinner =    1.000   1.000   1.000
                                                       1.000   1.000

     PseudoPot. # 2 for Te read from file:
     /work/02599/asmiller/pseudo/gbrv/pbe_GBRV/te_pbe_v1.uspp.F.UPF
     MD5 check sum: 749656373d74338a59c146dbd702c29e
     Pseudo is Ultrasoft + core correction, Zval =  6.0
     Generated by new atomic code, or converted to UPF format
     Using radial grid of  891 points,  5 beta functions with: 
                l(1) =   0
                l(2) =   0
                l(3) =   1
                l(4) =   1
                l(5) =   2
     Q(r) pseudized with  6 coefficients,  rinner =    1.800   1.800   1.800
                                                       1.800   1.800

     atomic species   valence    mass     pseudopotential
        Pb            14.00   207.20000     Pb( 1.00)
        Te             6.00   127.60000     Te( 1.00)

     48 Sym. Ops., with inversion, found



   Cartesian axes

     site n.     atom                  positions (alat units)
         1           Pb  tau(   1) = (   0.0000000   0.0000000   0.0000000  )
         2           Te  tau(   2) = (   0.5000000   0.5000000   0.5000000  )

     number of k points=    64
                       cart. coord. in units 2pi/alat
        k(    1) = (   0.0000000   0.0000000   0.0000000), wk =   0.0092593
        k(    2) = (  -0.5000000  -0.5000000   0.5000000), wk =   0.0000000
        k(    3) = (   0.1666667   0.1666667  -0.1666667), wk =   0.0185185
        k(    4) = (  -0.3333333  -0.3333333   0.3333333), wk =   0.0000000
        k(    5) = (   0.3333333   0.3333333  -0.3333333), wk =   0.0185185
        k(    6) = (  -0.1666667  -0.1666667   0.1666667), wk =   0.0000000
        k(    7) = (  -0.5000000  -0.5000000   0.5000000), wk =   0.0092593
        k(    8) = (  -1.0000000  -1.0000000   1.0000000), wk =   0.0000000
        k(    9) = (   0.3333333   0.0000000   0.0000000), wk =   0.0555556
        k(   10) = (  -0.1666667  -0.5000000   0.5000000), wk =   0.0000000
        k(   11) = (   0.5000000   0.1666667  -0.1666667), wk =   0.0555556
        k(   12) = (   0.0000000  -0.3333333   0.3333333), wk =   0.0000000
        k(   13) = (  -0.3333333  -0.6666667   0.6666667), wk =   0.0555556
        k(   14) = (  -0.8333333  -1.1666667   1.1666667), wk =   0.0000000
        k(   15) = (  -0.1666667  -0.5000000   0.5000000), wk =   0.0555556
        k(   16) = (  -0.6666667  -1.0000000   1.0000000), wk =   0.0000000
        k(   17) = (   0.0000000  -0.3333333   0.3333333), wk =   0.0555556
        k(   18) = (  -0.5000000  -0.8333333   0.8333333), wk =   0.0000000
        k(   19) = (   0.6666667   0.0000000   0.0000000), wk =   0.0555556
        k(   20) = (   0.1666667  -0.5000000   0.5000000), wk =   0.0000000
        k(   21) = (  -0.1666667  -0.8333333   0.8333333), wk =   0.0555556
        k(   22) = (  -0.6666667  -1.3333333   1.3333333), wk =   0.0000000
        k(   23) = (   0.0000000  -0.6666667   0.6666667), wk =   0.0555556
        k(   24) = (  -0.5000000  -1.1666667   1.1666667), wk =   0.0000000
        k(   25) = (  -1.0000000   0.0000000   0.0000000), wk =   0.0277778
        k(   26) = (  -1.5000000  -0.5000000   0.5000000), wk =   0.0000000
        k(   27) = (  -0.3333333  -0.6666667   1.0000000), wk =   0.1111111
        k(   28) = (  -0.8333333  -1.1666667   1.5000000), wk =   0.0000000
        k(   29) = (  -0.1666667  -0.5000000   0.8333333), wk =   0.0555556
        k(   30) = (  -0.6666667  -1.0000000   1.3333333), wk =   0.0000000
        k(   31) = (  -1.0000000   0.3333333   0.0000000), wk =   0.1111111
        k(   32) = (  -1.5000000  -0.1666667   0.5000000), wk =   0.0000000
        k(   33) = (   0.1666667  -0.1666667  -0.1666667), wk =   0.0555556
        k(   34) = (  -0.3333333  -0.6666667   0.3333333), wk =   0.0000000
        k(   35) = (   0.3333333  -0.3333333  -0.3333333), wk =   0.0555556
        k(   36) = (  -0.1666667  -0.8333333   0.1666667), wk =   0.0000000
        k(   37) = (  -0.5000000   0.5000000   0.5000000), wk =   0.0277778
        k(   38) = (  -1.0000000   0.0000000   1.0000000), wk =   0.0000000
        k(   39) = (   0.5000000  -0.1666667  -0.1666667), wk =   0.1111111
        k(   40) = (   0.0000000  -0.6666667   0.3333333), wk =   0.0000000
        k(   41) = (  -0.1666667  -0.1666667  -0.5000000), wk =   0.0555556
        k(   42) = (  -0.6666667  -0.6666667   0.0000000), wk =   0.0000000
        k(   43) = (  -0.3333333   0.6666667   0.6666667), wk =   0.1111111
        k(   44) = (  -0.8333333   0.1666667   1.1666667), wk =   0.0000000
        k(   45) = (   0.6666667   0.6666667   0.3333333), wk =   0.0555556
        k(   46) = (   0.1666667   0.1666667   0.8333333), wk =   0.0000000
        k(   47) = (  -0.1666667   0.5000000   0.5000000), wk =   0.1111111
        k(   48) = (  -0.6666667   0.0000000   1.0000000), wk =   0.0000000
        k(   49) = (   0.5000000   0.5000000   0.1666667), wk =   0.0555556
        k(   50) = (   0.0000000   0.0000000   0.6666667), wk =   0.0000000
        k(   51) = (   0.0000000   0.3333333   0.3333333), wk =   0.0555556
        k(   52) = (  -0.5000000  -0.1666667   0.8333333), wk =   0.0000000
        k(   53) = (  -0.1666667   0.8333333   0.8333333), wk =   0.1111111
        k(   54) = (  -0.6666667   0.3333333   1.3333333), wk =   0.0000000
        k(   55) = (   0.8333333   0.8333333   0.1666667), wk =   0.0555556
        k(   56) = (   0.3333333   0.3333333   0.6666667), wk =   0.0000000
        k(   57) = (   0.0000000   0.6666667   0.6666667), wk =   0.0555556
        k(   58) = (  -0.5000000   0.1666667   1.1666667), wk =   0.0000000
        k(   59) = (  -0.3333333   0.6666667   1.0000000), wk =   0.1111111
        k(   60) = (  -0.8333333   0.1666667   1.5000000), wk =   0.0000000
        k(   61) = (  -0.1666667   0.5000000   0.8333333), wk =   0.0555556
        k(   62) = (  -0.6666667   0.0000000   1.3333333), wk =   0.0000000
        k(   63) = (   0.1666667  -0.8333333  -0.5000000), wk =   0.1111111
        k(   64) = (  -0.3333333  -1.3333333   0.0000000), wk =   0.0000000

     Dense  grid:   111643 G-vectors     FFT dimensions: (  72,  72,  72)

     Smooth grid:    28475 G-vectors     FFT dimensions: (  45,  45,  45)

     Largest allocated arrays     est. size (Mb)     dimensions
        Kohn-Sham Wavefunctions         0.05 Mb     (    309,   10)
        NL pseudopotentials             0.15 Mb     (    309,   31)
        Each V/rho on FFT grid          0.47 Mb     (  31104)
        Each G-vector array             0.07 Mb     (   9303)
        G-vector shells                 0.01 Mb     (    748)
     Largest temporary arrays     est. size (Mb)     dimensions
        Auxiliary wavefunctions         0.19 Mb     (    309,   40)
        Each subspace H/S matrix        0.02 Mb     (  40,  40)
        Each <psi_i|beta_j> matrix      0.00 Mb     (     31,   10)

     The potential is recalculated from file :
     ./_ph0/PbTe.save/charge-density.dat


     negative rho (up, down):  0.157E-01 0.000E+00
     Starting wfc are   13 atomic wfcs

     total cpu time spent up to now is       23.7 secs

     per-process dynamical memory:    71.6 Mb

     Band Structure Calculation
     Davidson diagonalization with overlap

     ethr =  5.00E-11,  avg # of iterations = 29.7

     total cpu time spent up to now is       29.7 secs

     End of band structure calculation

          k = 0.0000 0.0000 0.0000 (  3527 PWs)   bands (ev):

    -9.1740  -9.1740  -9.1620  -9.1620  -9.1620  -4.6269   1.9154   6.1142
     6.1142   6.1142

          k =-0.5000-0.5000 0.5000 (  3582 PWs)   bands (ev):

    -9.1885  -9.1885  -9.1594  -9.1430  -9.1430  -3.1461  -1.1766   6.5803
     6.5803   7.4987

          k = 0.1667 0.1667-0.1667 (  3557 PWs)   bands (ev):

    -9.1771  -9.1771  -9.1612  -9.1578  -9.1578  -4.3852   1.1603   6.1836
     6.1836   6.5113

          k =-0.3333-0.3333 0.3333 (  3548 PWs)   bands (ev):

    -9.1846  -9.1846  -9.1599  -9.1480  -9.1480  -3.7222  -0.2803   6.3987
     6.3987   7.0905

          k = 0.3333 0.3333-0.3333 (  3548 PWs)   bands (ev):

    -9.1846  -9.1846  -9.1599  -9.1480  -9.1480  -3.7222  -0.2803   6.3987
     6.3987   7.0905

          k =-0.1667-0.1667 0.1667 (  3557 PWs)   bands (ev):

    -9.1771  -9.1771  -9.1612  -9.1578  -9.1578  -4.3852   1.1603   6.1836
     6.1836   6.5113

          k =-0.5000-0.5000 0.5000 (  3582 PWs)   bands (ev):

    -9.1885  -9.1885  -9.1594  -9.1430  -9.1430  -3.1461  -1.1766   6.5803
     6.5803   7.4987

          k =-1.0000-1.0000 1.0000 (  3527 PWs)   bands (ev):

    -9.1740  -9.1740  -9.1620  -9.1620  -9.1620  -4.6269   1.9154   6.1142
     6.1142   6.1142

          k = 0.3333 0.0000 0.0000 (  3543 PWs)   bands (ev):

    -9.1855  -9.1710  -9.1647  -9.1553  -9.1553  -4.3052   1.1232   5.6675
     5.6675   7.1375

          k =-0.1667-0.5000 0.5000 (  3537 PWs)   bands (ev):

    -9.1926  -9.1851  -9.1565  -9.1468  -9.1461  -3.2963  -0.6681   4.7424
     6.4189   6.9108

          k = 0.5000 0.1667-0.1667 (  3544 PWs)   bands (ev):

    -9.1969  -9.1738  -9.1638  -9.1492  -9.1463  -3.7850   0.1800   5.4983
     5.5717   6.2435

          k = 0.0000-0.3333 0.3333 (  3545 PWs)   bands (ev):

    -9.1829  -9.1809  -9.1601  -9.1545  -9.1503  -4.0000   0.3953   5.1649
     6.6835   7.2872

          k =-0.3333-0.6667 0.6667 (  3548 PWs)   bands (ev):

    -9.2003  -9.1813  -9.1583  -9.1466  -9.1413  -3.1018  -0.8867   5.0876
     5.7858   6.1666

          k =-0.8333-1.1667 1.1667 (  3557 PWs)   bands (ev):

    -9.1771  -9.1771  -9.1612  -9.1578  -9.1578  -4.3852   1.1603   6.1836
     6.1836   6.5113

          k =-0.1667-0.5000 0.5000 (  3537 PWs)   bands (ev):

    -9.1926  -9.1851  -9.1565  -9.1468  -9.1461  -3.2963  -0.6681   4.7424
     6.4189   6.9108

          k =-0.6667-1.0000 1.0000 (  3543 PWs)   bands (ev):

    -9.1855  -9.1710  -9.1647  -9.1553  -9.1553  -4.3052   1.1232   5.6675
     5.6675   7.1375

          k = 0.0000-0.3333 0.3333 (  3545 PWs)   bands (ev):

    -9.1829  -9.1809  -9.1601  -9.1545  -9.1503  -4.0000   0.3953   5.1649
     6.6835   7.2872

          k =-0.5000-0.8333 0.8333 (  3544 PWs)   bands (ev):

    -9.1969  -9.1738  -9.1638  -9.1492  -9.1463  -3.7850   0.1800   5.4983
     5.5717   6.2435

          k = 0.6667 0.0000 0.0000 (  3535 PWs)   bands (ev):

    -9.2190  -9.1701  -9.1649  -9.1412  -9.1412  -3.4670   0.2894   4.5081
     4.9333   4.9333

          k = 0.1667-0.5000 0.5000 (  3537 PWs)   bands (ev):

    -9.1926  -9.1851  -9.1565  -9.1468  -9.1461  -3.2963  -0.6681   4.7424
     6.4189   6.9108

          k =-0.1667-0.8333 0.8333 (  3521 PWs)   bands (ev):

    -9.2267  -9.1678  -9.1674  -9.1392  -9.1370  -2.9717  -0.2388   3.5027
     4.9288   5.0604

          k =-0.6667-1.3333 1.3333 (  3548 PWs)   bands (ev):

    -9.1846  -9.1846  -9.1599  -9.1480  -9.1480  -3.7222  -0.2803   6.3987
     6.3987   7.0905

          k = 0.0000-0.6667 0.6667 (  3526 PWs)   bands (ev):

    -9.2130  -9.1769  -9.1570  -9.1462  -9.1405  -2.8354  -0.7458   3.5496
     5.4969   5.7876

          k =-0.5000-1.1667 1.1667 (  3544 PWs)   bands (ev):

    -9.1969  -9.1738  -9.1638  -9.1492  -9.1463  -3.7850   0.1800   5.4983
     5.5717   6.2435

          k =-1.0000 0.0000 0.0000 (  3540 PWs)   bands (ev):

    -9.2405  -9.1728  -9.1619  -9.1339  -9.1339  -2.8847   0.1509   2.8709
     4.6199   4.6199

          k =-1.5000-0.5000 0.5000 (  3582 PWs)   bands (ev):

    -9.1885  -9.1885  -9.1594  -9.1430  -9.1430  -3.1461  -1.1766   6.5803
     6.5803   7.4987

          k =-0.3333-0.6667 1.0000 (  3535 PWs)   bands (ev):

    -9.2087  -9.1751  -9.1618  -9.1453  -9.1415  -3.2355  -0.3541   4.3798
     4.8080   6.4855

          k =-0.8333-1.1667 1.5000 (  3544 PWs)   bands (ev):

    -9.1969  -9.1738  -9.1638  -9.1492  -9.1463  -3.7850   0.1800   5.4983
     5.5717   6.2435

          k =-0.1667-0.5000 0.8333 (  3546 PWs)   bands (ev):

    -9.2125  -9.1778  -9.1542  -9.1516  -9.1376  -2.8345  -0.7520   4.0780
     4.1916   7.0657

          k =-0.6667-1.0000 1.3333 (  3545 PWs)   bands (ev):

    -9.1829  -9.1809  -9.1601  -9.1545  -9.1503  -4.0000   0.3953   5.1649
     6.6835   7.2872

          k =-1.0000 0.3333 0.0000 (  3506 PWs)   bands (ev):

    -9.2267  -9.1706  -9.1635  -9.1440  -9.1339  -2.7647  -0.4007   3.2119
     4.0538   6.1959

          k =-1.5000-0.1667 0.5000 (  3537 PWs)   bands (ev):

    -9.1926  -9.1851  -9.1565  -9.1468  -9.1461  -3.2963  -0.6681   4.7424
     6.4189   6.9108

          k = 0.1667-0.1667-0.1667 (  3557 PWs)   bands (ev):

    -9.1771  -9.1771  -9.1612  -9.1578  -9.1578  -4.3852   1.1603   6.1836
     6.1836   6.5113

          k =-0.3333-0.6667 0.3333 (  3548 PWs)   bands (ev):

    -9.2003  -9.1813  -9.1583  -9.1466  -9.1413  -3.1018  -0.8867   5.0876
     5.7858   6.1666

          k = 0.3333-0.3333-0.3333 (  3548 PWs)   bands (ev):

    -9.1846  -9.1846  -9.1599  -9.1480  -9.1480  -3.7222  -0.2803   6.3987
     6.3987   7.0905

          k =-0.1667-0.8333 0.1667 (  3521 PWs)   bands (ev):

    -9.2267  -9.1678  -9.1674  -9.1392  -9.1370  -2.9717  -0.2388   3.5027
     4.9288   5.0604

          k =-0.5000 0.5000 0.5000 (  3582 PWs)   bands (ev):

    -9.1885  -9.1885  -9.1594  -9.1430  -9.1430  -3.1461  -1.1766   6.5803
     6.5803   7.4987

          k =-1.0000 0.0000 1.0000 (  3540 PWs)   bands (ev):

    -9.2405  -9.1728  -9.1619  -9.1339  -9.1339  -2.8847   0.1509   2.8709
     4.6199   4.6199

          k = 0.5000-0.1667-0.1667 (  3544 PWs)   bands (ev):

    -9.1969  -9.1738  -9.1638  -9.1492  -9.1463  -3.7850   0.1800   5.4983
     5.5717   6.2435

          k = 0.0000-0.6667 0.3333 (  3535 PWs)   bands (ev):

    -9.2087  -9.1751  -9.1618  -9.1453  -9.1415  -3.2355  -0.3541   4.3798
     4.8080   6.4855

          k =-0.1667-0.1667-0.5000 (  3544 PWs)   bands (ev):

    -9.1969  -9.1738  -9.1638  -9.1492  -9.1463  -3.7850   0.1800   5.4983
     5.5717   6.2435

          k =-0.6667-0.6667 0.0000 (  3526 PWs)   bands (ev):

    -9.2130  -9.1769  -9.1570  -9.1462  -9.1405  -2.8354  -0.7458   3.5496
     5.4969   5.7876

          k =-0.3333 0.6667 0.6667 (  3548 PWs)   bands (ev):

    -9.2003  -9.1813  -9.1583  -9.1466  -9.1413  -3.1018  -0.8867   5.0876
     5.7858   6.1666

          k =-0.8333 0.1667 1.1667 (  3521 PWs)   bands (ev):

    -9.2267  -9.1678  -9.1674  -9.1392  -9.1370  -2.9717  -0.2388   3.5027
     4.9288   5.0604

          k = 0.6667 0.6667 0.3333 (  3548 PWs)   bands (ev):

    -9.2003  -9.1813  -9.1583  -9.1466  -9.1413  -3.1018  -0.8867   5.0876
     5.7858   6.1666

          k = 0.1667 0.1667 0.8333 (  3521 PWs)   bands (ev):

    -9.2267  -9.1678  -9.1674  -9.1392  -9.1370  -2.9717  -0.2388   3.5027
     4.9288   5.0604

          k =-0.1667 0.5000 0.5000 (  3537 PWs)   bands (ev):

    -9.1926  -9.1851  -9.1565  -9.1468  -9.1461  -3.2963  -0.6681   4.7424
     6.4189   6.9108

          k =-0.6667 0.0000 1.0000 (  3506 PWs)   bands (ev):

    -9.2267  -9.1706  -9.1635  -9.1440  -9.1339  -2.7647  -0.4007   3.2119
     4.0538   6.1959

          k = 0.5000 0.5000 0.1667 (  3537 PWs)   bands (ev):

    -9.1926  -9.1851  -9.1565  -9.1468  -9.1461  -3.2963  -0.6681   4.7424
     6.4189   6.9108

          k = 0.0000 0.0000 0.6667 (  3535 PWs)   bands (ev):

    -9.2190  -9.1701  -9.1649  -9.1412  -9.1412  -3.4670   0.2894   4.5081
     4.9333   4.9333

          k = 0.0000 0.3333 0.3333 (  3545 PWs)   bands (ev):

    -9.1829  -9.1809  -9.1601  -9.1545  -9.1503  -4.0000   0.3953   5.1649
     6.6835   7.2872

          k =-0.5000-0.1667 0.8333 (  3546 PWs)   bands (ev):

    -9.2125  -9.1778  -9.1542  -9.1516  -9.1376  -2.8345  -0.7520   4.0780
     4.1916   7.0657

          k =-0.1667 0.8333 0.8333 (  3521 PWs)   bands (ev):

    -9.2267  -9.1678  -9.1674  -9.1392  -9.1370  -2.9717  -0.2388   3.5027
     4.9288   5.0604

          k =-0.6667 0.3333 1.3333 (  3548 PWs)   bands (ev):

    -9.2003  -9.1813  -9.1583  -9.1466  -9.1413  -3.1018  -0.8867   5.0876
     5.7858   6.1666

          k = 0.8333 0.8333 0.1667 (  3521 PWs)   bands (ev):

    -9.2267  -9.1678  -9.1674  -9.1392  -9.1370  -2.9717  -0.2388   3.5027
     4.9288   5.0604

          k = 0.3333 0.3333 0.6667 (  3548 PWs)   bands (ev):

    -9.2003  -9.1813  -9.1583  -9.1466  -9.1413  -3.1018  -0.8867   5.0876
     5.7858   6.1666

          k = 0.0000 0.6667 0.6667 (  3526 PWs)   bands (ev):

    -9.2130  -9.1769  -9.1570  -9.1462  -9.1405  -2.8354  -0.7458   3.5496
     5.4969   5.7876

          k =-0.5000 0.1667 1.1667 (  3546 PWs)   bands (ev):

    -9.2125  -9.1778  -9.1542  -9.1516  -9.1376  -2.8345  -0.7520   4.0780
     4.1916   7.0657

          k =-0.3333 0.6667 1.0000 (  3535 PWs)   bands (ev):

    -9.2087  -9.1751  -9.1618  -9.1453  -9.1415  -3.2355  -0.3541   4.3798
     4.8080   6.4855

          k =-0.8333 0.1667 1.5000 (  3546 PWs)   bands (ev):

    -9.2125  -9.1778  -9.1542  -9.1516  -9.1376  -2.8345  -0.7520   4.0780
     4.1916   7.0657

          k =-0.1667 0.5000 0.8333 (  3546 PWs)   bands (ev):

    -9.2125  -9.1778  -9.1542  -9.1516  -9.1376  -2.8345  -0.7520   4.0780
     4.1916   7.0657

          k =-0.6667 0.0000 1.3333 (  3526 PWs)   bands (ev):

    -9.2130  -9.1769  -9.1570  -9.1462  -9.1405  -2.8354  -0.7458   3.5496
     5.4969   5.7876

          k = 0.1667-0.8333-0.5000 (  3546 PWs)   bands (ev):

    -9.2125  -9.1778  -9.1542  -9.1516  -9.1376  -2.8345  -0.7520   4.0780
     4.1916   7.0657

          k =-0.3333-1.3333 0.0000 (  3535 PWs)   bands (ev):

    -9.2087  -9.1751  -9.1618  -9.1453  -9.1415  -3.2355  -0.3541   4.3798
     4.8080   6.4855

     Writing output data file PbTe.save

                                                                                

     bravais-lattice index     =            0
     lattice parameter (alat)  =      12.1676  a.u.
     unit-cell volume          =     450.3505 (a.u.)^3
     number of atoms/cell      =            2
     number of atomic types    =            2
     kinetic-energy cut-off    =      60.0000  Ry
     charge density cut-off    =     600.0000  Ry
     convergence threshold     =      1.0E-16
     beta                      =       0.7000
     number of iterations used =            4
     Exchange-correlation      = PBESOL ( 1 410 8 0)
     EXX-fraction              =        0.00


     celldm(1)=   12.16756  celldm(2)=    0.00000  celldm(3)=    0.00000
     celldm(4)=    0.00000  celldm(5)=    0.00000  celldm(6)=    0.00000

     crystal axes: (cart. coord. in units of alat)
               a(1) = (  0.0000  0.5000  0.5000 )  
               a(2) = (  0.5000  0.0000  0.5000 )  
               a(3) = (  0.5000  0.5000  0.0000 )  

     reciprocal axes: (cart. coord. in units 2 pi/alat)
               b(1) = ( -1.0000  1.0000  1.0000 )  
               b(2) = (  1.0000 -1.0000  1.0000 )  
               b(3) = (  1.0000  1.0000 -1.0000 )  


     Atoms inside the unit cell: 

   Cartesian axes

     site n.  atom      mass           positions (alat units)
        1        Pb 207.2000   tau( 1) = (    0.00000    0.00000    0.00000  )
        2        Te 127.6000   tau( 2) = (    0.50000    0.50000    0.50000  )

     Computing dynamical matrix for 
                    q = (  -0.5000000  -0.5000000   0.5000000 )
 
     13 Sym.Ops. (with q -> -q+G )


     G cutoff = 2250.0835  (   9303 G-vectors)     FFT grid: ( 72, 72, 72)
     G cutoff =  900.0334  (   2379 G-vectors)  smooth grid: ( 45, 45, 45)
     number of k points=    64

     PseudoPot. # 1 for Pb read from file:
     /work/02599/asmiller/pseudo/gbrv/pbe_GBRV/pb_pbe_v1.uspp.F.UPF
     MD5 check sum: a5f44a0c8587cfbb5a05efeead6b9227
     Pseudo is Ultrasoft + core correction, Zval = 14.0
     Generated by new atomic code, or converted to UPF format
     Using radial grid of  899 points,  6 beta functions with: 
                l(1) =   0
                l(2) =   0
                l(3) =   1
                l(4) =   1
                l(5) =   2
                l(6) =   2
     Q(r) pseudized with  6 coefficients,  rinner =    1.000   1.000   1.000
                                                       1.000   1.000

     PseudoPot. # 2 for Te read from file:
     /work/02599/asmiller/pseudo/gbrv/pbe_GBRV/te_pbe_v1.uspp.F.UPF
     MD5 check sum: 749656373d74338a59c146dbd702c29e
     Pseudo is Ultrasoft + core correction, Zval =  6.0
     Generated by new atomic code, or converted to UPF format
     Using radial grid of  891 points,  5 beta functions with: 
                l(1) =   0
                l(2) =   0
                l(3) =   1
                l(4) =   1
                l(5) =   2
     Q(r) pseudized with  6 coefficients,  rinner =    1.800   1.800   1.800
                                                       1.800   1.800


     Atomic displacements:
     There are   4 irreducible representations

     Representation     1      1 modes -A_1g L_1 To be done

     Representation     2      2 modes -E_g  L_3 To be done

     Representation     3      1 modes -A_2u L_2' To be done

     Representation     4      2 modes -E_u  L_3' To be done



     Alpha used in Ewald sum =   2.8000

     negative rho (up, down):  0.157E-01 0.000E+00
     PHONON       :  9m46.34s CPU    10m16.42s WALL



     Representation #  1 mode #   1

     Self-consistent Calculation

      iter #   1 total cpu time :   617.7 secs   av.it.:   4.7
      thresh= 0.100E-01 alpha_mix =  0.700 |ddv_scf|^2 =  0.840E-05

      iter #   2 total cpu time :   620.2 secs   av.it.:  13.6
      thresh= 0.290E-03 alpha_mix =  0.700 |ddv_scf|^2 =  0.416E-04

      iter #   3 total cpu time :   622.4 secs   av.it.:  11.6
      thresh= 0.645E-03 alpha_mix =  0.700 |ddv_scf|^2 =  0.181E-08

      iter #   4 total cpu time :   625.1 secs   av.it.:  15.4
      thresh= 0.425E-05 alpha_mix =  0.700 |ddv_scf|^2 =  0.187E-09

      iter #   5 total cpu time :   627.6 secs   av.it.:  14.5
      thresh= 0.137E-05 alpha_mix =  0.700 |ddv_scf|^2 =  0.619E-11

      iter #   6 total cpu time :   630.1 secs   av.it.:  14.0
      thresh= 0.249E-06 alpha_mix =  0.700 |ddv_scf|^2 =  0.106E-12

      iter #   7 total cpu time :   632.7 secs   av.it.:  14.7
      thresh= 0.326E-07 alpha_mix =  0.700 |ddv_scf|^2 =  0.488E-15

      iter #   8 total cpu time :   635.3 secs   av.it.:  15.1
      thresh= 0.221E-08 alpha_mix =  0.700 |ddv_scf|^2 =  0.628E-17

     End of self-consistent calculation

     Convergence has been achieved 


     Representation #  2 modes #   2  3

     Self-consistent Calculation

      iter #   1 total cpu time :   637.8 secs   av.it.:   4.1
      thresh= 0.100E-01 alpha_mix =  0.700 |ddv_scf|^2 =  0.200E-07

      iter #   2 total cpu time :   643.1 secs   av.it.:  15.8
      thresh= 0.141E-04 alpha_mix =  0.700 |ddv_scf|^2 =  0.183E-08

      iter #   3 total cpu time :   648.4 secs   av.it.:  16.2
      thresh= 0.428E-05 alpha_mix =  0.700 |ddv_scf|^2 =  0.503E-10

      iter #   4 total cpu time :   653.8 secs   av.it.:  16.3
      thresh= 0.710E-06 alpha_mix =  0.700 |ddv_scf|^2 =  0.278E-12

      iter #   5 total cpu time :   659.4 secs   av.it.:  17.0
      thresh= 0.527E-07 alpha_mix =  0.700 |ddv_scf|^2 =  0.333E-14

      iter #   6 total cpu time :   664.9 secs   av.it.:  17.0
      thresh= 0.577E-08 alpha_mix =  0.700 |ddv_scf|^2 =  0.144E-16

     End of self-consistent calculation

     Convergence has been achieved 


     Representation #  3 mode #   4

     Self-consistent Calculation

      iter #   1 total cpu time :   667.1 secs   av.it.:   9.7
      thresh= 0.100E-01 alpha_mix =  0.700 |ddv_scf|^2 =  0.624E-04

      iter #   2 total cpu time :   669.6 secs   av.it.:  14.8
      thresh= 0.790E-03 alpha_mix =  0.700 |ddv_scf|^2 =  0.309E-03

      iter #   3 total cpu time :   671.9 secs   av.it.:  12.8
      thresh= 0.176E-02 alpha_mix =  0.700 |ddv_scf|^2 =  0.167E-06

      iter #   4 total cpu time :   674.5 secs   av.it.:  15.0
      thresh= 0.409E-04 alpha_mix =  0.700 |ddv_scf|^2 =  0.642E-08

      iter #   5 total cpu time :   677.0 secs   av.it.:  14.1
      thresh= 0.801E-05 alpha_mix =  0.700 |ddv_scf|^2 =  0.848E-10

      iter #   6 total cpu time :   679.6 secs   av.it.:  15.1
      thresh= 0.921E-06 alpha_mix =  0.700 |ddv_scf|^2 =  0.796E-12

      iter #   7 total cpu time :   682.2 secs   av.it.:  14.5
      thresh= 0.892E-07 alpha_mix =  0.700 |ddv_scf|^2 =  0.318E-13

      iter #   8 total cpu time :   684.7 secs   av.it.:  14.0
      thresh= 0.178E-07 alpha_mix =  0.700 |ddv_scf|^2 =  0.287E-15

      iter #   9 total cpu time :   687.3 secs   av.it.:  14.9
      thresh= 0.169E-08 alpha_mix =  0.700 |ddv_scf|^2 =  0.623E-17

     End of self-consistent calculation

     Convergence has been achieved 


     Representation #  4 modes #   5  6

     Self-consistent Calculation

      iter #   1 total cpu time :   691.0 secs   av.it.:   8.6
      thresh= 0.100E-01 alpha_mix =  0.700 |ddv_scf|^2 =  0.918E-06

      iter #   2 total cpu time :   696.6 secs   av.it.:  17.0
      thresh= 0.958E-04 alpha_mix =  0.700 |ddv_scf|^2 =  0.338E-06

      iter #   3 total cpu time :   702.1 secs   av.it.:  16.4
      thresh= 0.581E-04 alpha_mix =  0.700 |ddv_scf|^2 =  0.139E-09

      iter #   4 total cpu time :   707.6 secs   av.it.:  17.2
      thresh= 0.118E-05 alpha_mix =  0.700 |ddv_scf|^2 =  0.399E-11

      iter #   5 total cpu time :   713.0 secs   av.it.:  16.2
      thresh= 0.200E-06 alpha_mix =  0.700 |ddv_scf|^2 =  0.244E-13

      iter #   6 total cpu time :   718.5 secs   av.it.:  16.7
      thresh= 0.156E-07 alpha_mix =  0.700 |ddv_scf|^2 =  0.496E-15

      iter #   7 total cpu time :   723.8 secs   av.it.:  16.3
      thresh= 0.223E-08 alpha_mix =  0.700 |ddv_scf|^2 =  0.263E-17

     End of self-consistent calculation

     Convergence has been achieved 
 
     Number of q in the star =    4
     List of q in the star:
          1  -0.500000000  -0.500000000   0.500000000
          2  -0.500000000   0.500000000   0.500000000
          3  -0.500000000  -0.500000000  -0.500000000
          4  -0.500000000   0.500000000  -0.500000000

     Diagonalizing the dynamical matrix

     q = (   -0.500000000  -0.500000000   0.500000000 ) 

 **************************************************************************
     omega( 1) =       1.737350 [THz] =      57.951743 [cm-1]
     omega( 2) =       1.737350 [THz] =      57.951743 [cm-1]
     omega( 3) =       2.718458 [THz] =      90.678001 [cm-1]
     omega( 4) =       2.917161 [THz] =      97.306003 [cm-1]
     omega( 5) =       2.917161 [THz] =      97.306003 [cm-1]
     omega( 6) =       3.180315 [THz] =     106.083889 [cm-1]
 **************************************************************************

     Mode symmetry, D_3d (-3m)  point group:

     omega(  1 -  2) =         58.0  [cm-1]   --> E_u  L_3'          
     omega(  3 -  3) =         90.7  [cm-1]   --> A_2u L_2'          
     omega(  4 -  5) =         97.3  [cm-1]   --> E_g  L_3           
     omega(  6 -  6) =        106.1  [cm-1]   --> A_1g L_1           

 **************************************************************************

     Calculation of q =    0.3333333   0.0000000   0.0000000
 
     Parallelization info
     --------------------
     sticks:   dense  smooth     PW     G-vecs:    dense   smooth      PW
     Min         254     103     30                 9302     2367     372
     Max         255     104     31                 9306     2385     375
     Sum        3055    1237    361               111643    28475    4477
 


     bravais-lattice index     =            0
     lattice parameter (alat)  =      12.1676  a.u.
     unit-cell volume          =     450.3505 (a.u.)^3
     number of atoms/cell      =            2
     number of atomic types    =            2
     number of electrons       =        20.00
     number of Kohn-Sham states=           10
     kinetic-energy cutoff     =      60.0000  Ry
     charge density cutoff     =     600.0000  Ry
     Exchange-correlation      = PBESOL ( 1 410 8 0)
     EXX-fraction              =        0.00

     celldm(1)=  12.167562  celldm(2)=   0.000000  celldm(3)=   0.000000
     celldm(4)=   0.000000  celldm(5)=   0.000000  celldm(6)=   0.000000

     crystal axes: (cart. coord. in units of alat)
               a(1) = (   0.000000   0.500000   0.500000 )  
               a(2) = (   0.500000   0.000000   0.500000 )  
               a(3) = (   0.500000   0.500000   0.000000 )  

     reciprocal axes: (cart. coord. in units 2 pi/alat)
               b(1) = ( -1.000000  1.000000  1.000000 )  
               b(2) = (  1.000000 -1.000000  1.000000 )  
               b(3) = (  1.000000  1.000000 -1.000000 )  


     PseudoPot. # 1 for Pb read from file:
     /work/02599/asmiller/pseudo/gbrv/pbe_GBRV/pb_pbe_v1.uspp.F.UPF
     MD5 check sum: a5f44a0c8587cfbb5a05efeead6b9227
     Pseudo is Ultrasoft + core correction, Zval = 14.0
     Generated by new atomic code, or converted to UPF format
     Using radial grid of  899 points,  6 beta functions with: 
                l(1) =   0
                l(2) =   0
                l(3) =   1
                l(4) =   1
                l(5) =   2
                l(6) =   2
     Q(r) pseudized with  6 coefficients,  rinner =    1.000   1.000   1.000
                                                       1.000   1.000

     PseudoPot. # 2 for Te read from file:
     /work/02599/asmiller/pseudo/gbrv/pbe_GBRV/te_pbe_v1.uspp.F.UPF
     MD5 check sum: 749656373d74338a59c146dbd702c29e
     Pseudo is Ultrasoft + core correction, Zval =  6.0
     Generated by new atomic code, or converted to UPF format
     Using radial grid of  891 points,  5 beta functions with: 
                l(1) =   0
                l(2) =   0
                l(3) =   1
                l(4) =   1
                l(5) =   2
     Q(r) pseudized with  6 coefficients,  rinner =    1.800   1.800   1.800
                                                       1.800   1.800

     atomic species   valence    mass     pseudopotential
        Pb            14.00   207.20000     Pb( 1.00)
        Te             6.00   127.60000     Te( 1.00)

     48 Sym. Ops., with inversion, found



   Cartesian axes

     site n.     atom                  positions (alat units)
         1           Pb  tau(   1) = (   0.0000000   0.0000000   0.0000000  )
         2           Te  tau(   2) = (   0.5000000   0.5000000   0.5000000  )

     number of k points=    96
                       cart. coord. in units 2pi/alat
        k(    1) = (   0.0000000   0.0000000   0.0000000), wk =   0.0092593
        k(    2) = (   0.3333333   0.0000000   0.0000000), wk =   0.0000000
        k(    3) = (   0.1666667   0.1666667  -0.1666667), wk =   0.0370370
        k(    4) = (   0.5000000   0.1666667  -0.1666667), wk =   0.0000000
        k(    5) = (   0.3333333   0.3333333  -0.3333333), wk =   0.0370370
        k(    6) = (   0.6666667   0.3333333  -0.3333333), wk =   0.0000000
        k(    7) = (  -0.5000000  -0.5000000   0.5000000), wk =   0.0370370
        k(    8) = (  -0.1666667  -0.5000000   0.5000000), wk =   0.0000000
        k(    9) = (   0.3333333   0.0000000   0.0000000), wk =   0.0092593
        k(   10) = (   0.6666667   0.0000000   0.0000000), wk =   0.0000000
        k(   11) = (   0.5000000   0.1666667  -0.1666667), wk =   0.0370370
        k(   12) = (   0.8333333   0.1666667  -0.1666667), wk =   0.0000000
        k(   13) = (  -0.3333333  -0.6666667   0.6666667), wk =   0.0370370
        k(   14) = (   0.0000000  -0.6666667   0.6666667), wk =   0.0000000
        k(   15) = (  -0.1666667  -0.5000000   0.5000000), wk =   0.0370370
        k(   16) = (   0.1666667  -0.5000000   0.5000000), wk =   0.0000000
        k(   17) = (   0.0000000  -0.3333333   0.3333333), wk =   0.0370370
        k(   18) = (   0.3333333  -0.3333333   0.3333333), wk =   0.0000000
        k(   19) = (   0.6666667   0.0000000   0.0000000), wk =   0.0092593
        k(   20) = (   1.0000000   0.0000000   0.0000000), wk =   0.0000000
        k(   21) = (  -0.1666667  -0.8333333   0.8333333), wk =   0.0370370
        k(   22) = (   0.1666667  -0.8333333   0.8333333), wk =   0.0000000
        k(   23) = (   0.0000000  -0.6666667   0.6666667), wk =   0.0370370
        k(   24) = (   0.3333333  -0.6666667   0.6666667), wk =   0.0000000
        k(   25) = (  -1.0000000   0.0000000   0.0000000), wk =   0.0092593
        k(   26) = (  -0.6666667   0.0000000   0.0000000), wk =   0.0000000
        k(   27) = (  -0.3333333  -0.6666667   1.0000000), wk =   0.0370370
        k(   28) = (   0.0000000  -0.6666667   1.0000000), wk =   0.0000000
        k(   29) = (  -0.1666667  -0.5000000   0.8333333), wk =   0.0740741
        k(   30) = (   0.1666667  -0.5000000   0.8333333), wk =   0.0000000
        k(   31) = (  -1.0000000   0.3333333   0.0000000), wk =   0.0370370
        k(   32) = (  -0.6666667   0.3333333   0.0000000), wk =   0.0000000
        k(   33) = (  -0.1666667  -0.1666667   0.1666667), wk =   0.0370370
        k(   34) = (   0.1666667  -0.1666667   0.1666667), wk =   0.0000000
        k(   35) = (  -0.3333333  -0.3333333   0.3333333), wk =   0.0370370
        k(   36) = (   0.0000000  -0.3333333   0.3333333), wk =   0.0000000
        k(   37) = (   0.0000000   0.0000000   0.3333333), wk =   0.0370370
        k(   38) = (   0.3333333   0.0000000   0.3333333), wk =   0.0000000
        k(   39) = (  -0.3333333   0.0000000   0.0000000), wk =   0.0092593
        k(   40) = (   0.0000000   0.0000000   0.0000000), wk =   0.0000000
        k(   41) = (  -0.1666667  -0.1666667   0.5000000), wk =   0.0740741
        k(   42) = (   0.1666667  -0.1666667   0.5000000), wk =   0.0000000
        k(   43) = (   0.1666667   0.1666667  -0.5000000), wk =   0.0740741
        k(   44) = (   0.5000000   0.1666667  -0.5000000), wk =   0.0000000
        k(   45) = (  -0.5000000   0.1666667   0.1666667), wk =   0.0370370
[...]

     The potential is recalculated from file :
     ./_ph0/PbTe.save/charge-density.dat


     negative rho (up, down):  0.157E-01 0.000E+00
     Starting wfc are   13 atomic wfcs

     total cpu time spent up to now is      239.9 secs

     per-process dynamical memory:    71.6 Mb

     Band Structure Calculation
     Davidson diagonalization with overlap

     ethr =  5.00E-11,  avg # of iterations = 29.8

     total cpu time spent up to now is      254.2 secs

     End of band structure calculation

     Number of k-points >= 100: set verbosity='high' to print the bands.

     Writing output data file PbTe.save

                                                                                

     bravais-lattice index     =            0
     lattice parameter (alat)  =      12.1676  a.u.
     unit-cell volume          =     450.3505 (a.u.)^3
     number of atoms/cell      =            2
     number of atomic types    =            2
     kinetic-energy cut-off    =      60.0000  Ry
     charge density cut-off    =     600.0000  Ry
     convergence threshold     =      1.0E-16
     beta                      =       0.7000
     number of iterations used =            4
     Exchange-correlation      = PBESOL ( 1 410 8 0)
     EXX-fraction              =        0.00


     celldm(1)=   12.16756  celldm(2)=    0.00000  celldm(3)=    0.00000
     celldm(4)=    0.00000  celldm(5)=    0.00000  celldm(6)=    0.00000

     crystal axes: (cart. coord. in units of alat)
               a(1) = (  0.0000  0.5000  0.5000 )  
               a(2) = (  0.5000  0.0000  0.5000 )  
               a(3) = (  0.5000  0.5000  0.0000 )  

     reciprocal axes: (cart. coord. in units 2 pi/alat)
               b(1) = ( -1.0000  1.0000  1.0000 )  
               b(2) = (  1.0000 -1.0000  1.0000 )  
               b(3) = (  1.0000  1.0000 -1.0000 )  


     Atoms inside the unit cell: 

   Cartesian axes

     site n.  atom      mass           positions (alat units)
        1        Pb 207.2000   tau( 1) = (    0.00000    0.00000    0.00000  )
        2        Te 127.6000   tau( 2) = (    0.50000    0.50000    0.50000  )

     Computing dynamical matrix for 
                    q = (  -1.0000000   0.3333333   0.0000000 )
 
      4 Sym.Ops. (no q -> -q+G )


     G cutoff = 2250.0835  (   9303 G-vectors)     FFT grid: ( 72, 72, 72)
     G cutoff =  900.0334  (   2374 G-vectors)  smooth grid: ( 45, 45, 45)
     number of k points=   150

     PseudoPot. # 1 for Pb read from file:
     /work/02599/asmiller/pseudo/gbrv/pbe_GBRV/pb_pbe_v1.uspp.F.UPF
     MD5 check sum: a5f44a0c8587cfbb5a05efeead6b9227
     Pseudo is Ultrasoft + core correction, Zval = 14.0
     Generated by new atomic code, or converted to UPF format
     Using radial grid of  899 points,  6 beta functions with: 
                l(1) =   0
                l(2) =   0
                l(3) =   1
                l(4) =   1
                l(5) =   2
                l(6) =   2
     Q(r) pseudized with  6 coefficients,  rinner =    1.000   1.000   1.000
                                                       1.000   1.000

     PseudoPot. # 2 for Te read from file:
     /work/02599/asmiller/pseudo/gbrv/pbe_GBRV/te_pbe_v1.uspp.F.UPF
     MD5 check sum: 749656373d74338a59c146dbd702c29e
     Pseudo is Ultrasoft + core correction, Zval =  6.0
     Generated by new atomic code, or converted to UPF format
     Using radial grid of  891 points,  5 beta functions with: 
                l(1) =   0
                l(2) =   0
                l(3) =   1
                l(4) =   1
                l(5) =   2
     Q(r) pseudized with  6 coefficients,  rinner =    1.800   1.800   1.800
                                                       1.800   1.800


     Atomic displacements:
     There are   6 irreducible representations

     Representation     1      1 modes -A_1  D_1  S_1 To be done

     Representation     2      1 modes -A_1  D_1  S_1 To be done

     Representation     3      1 modes -B_1  D_3  S_3 To be done

     Representation     4      1 modes -B_1  D_3  S_3 To be done

     Representation     5      1 modes -B_2  D_4  S_4 To be done

     Representation     6      1 modes -B_2  D_4  S_4 To be done



     Alpha used in Ewald sum =   2.8000

     negative rho (up, down):  0.157E-01 0.000E+00
     PHONON       :     1h32m CPU        1h38m WALL



     Representation #  1 mode #   1

     Self-consistent Calculation

      iter #   1 total cpu time :  5888.6 secs   av.it.:   5.0
      thresh= 0.100E-01 alpha_mix =  0.700 |ddv_scf|^2 =  0.515E-06

      iter #   2 total cpu time :  5894.4 secs   av.it.:  15.3
      thresh= 0.717E-04 alpha_mix =  0.700 |ddv_scf|^2 =  0.513E-06

      iter #   3 total cpu time :  5900.2 secs   av.it.:  14.7
      thresh= 0.717E-04 alpha_mix =  0.700 |ddv_scf|^2 =  0.992E-09

      iter #   4 total cpu time :  5906.3 secs   av.it.:  16.4
      thresh= 0.315E-05 alpha_mix =  0.700 |ddv_scf|^2 =  0.450E-09

      iter #   5 total cpu time :  5912.1 secs   av.it.:  15.5
      thresh= 0.212E-05 alpha_mix =  0.700 |ddv_scf|^2 =  0.707E-10

      iter #   6 total cpu time :  5917.9 secs   av.it.:  15.3
      thresh= 0.841E-06 alpha_mix =  0.700 |ddv_scf|^2 =  0.687E-12

      iter #   7 total cpu time :  5924.0 secs   av.it.:  16.4
      thresh= 0.829E-07 alpha_mix =  0.700 |ddv_scf|^2 =  0.680E-13

      iter #   8 total cpu time :  5930.0 secs   av.it.:  16.2
      thresh= 0.261E-07 alpha_mix =  0.700 |ddv_scf|^2 =  0.491E-14

      iter #   9 total cpu time :  5936.0 secs   av.it.:  16.1
      thresh= 0.700E-08 alpha_mix =  0.700 |ddv_scf|^2 =  0.173E-14

      iter #  10 total cpu time :  5941.7 secs   av.it.:  15.2
      thresh= 0.416E-08 alpha_mix =  0.700 |ddv_scf|^2 =  0.378E-16

     End of self-consistent calculation

     Convergence has been achieved 


     Representation #  2 mode #   2

     Self-consistent Calculation

      iter #   1 total cpu time :  5945.6 secs   av.it.:   8.6
      thresh= 0.100E-01 alpha_mix =  0.700 |ddv_scf|^2 =  0.808E-05

      iter #   2 total cpu time :  5951.6 secs   av.it.:  15.8
      thresh= 0.284E-03 alpha_mix =  0.700 |ddv_scf|^2 =  0.108E-04

      iter #   3 total cpu time :  5957.2 secs   av.it.:  14.7
      thresh= 0.329E-03 alpha_mix =  0.700 |ddv_scf|^2 =  0.151E-06

      iter #   4 total cpu time :  5962.8 secs   av.it.:  15.0
      thresh= 0.388E-04 alpha_mix =  0.700 |ddv_scf|^2 =  0.300E-08

      iter #   5 total cpu time :  5968.7 secs   av.it.:  15.7
      thresh= 0.548E-05 alpha_mix =  0.700 |ddv_scf|^2 =  0.470E-09

      iter #   6 total cpu time :  5974.5 secs   av.it.:  15.7
      thresh= 0.217E-05 alpha_mix =  0.700 |ddv_scf|^2 =  0.896E-11

      iter #   7 total cpu time :  5980.5 secs   av.it.:  16.2
      thresh= 0.299E-06 alpha_mix =  0.700 |ddv_scf|^2 =  0.730E-12

      iter #   8 total cpu time :  5986.6 secs   av.it.:  16.2
      thresh= 0.854E-07 alpha_mix =  0.700 |ddv_scf|^2 =  0.185E-12

      iter #   9 total cpu time :  5992.3 secs   av.it.:  15.2
      thresh= 0.430E-07 alpha_mix =  0.700 |ddv_scf|^2 =  0.231E-13

      iter #  10 total cpu time :  5997.9 secs   av.it.:  15.1
      thresh= 0.152E-07 alpha_mix =  0.700 |ddv_scf|^2 =  0.852E-15

      iter #  11 total cpu time :  6003.9 secs   av.it.:  15.9
      thresh= 0.292E-08 alpha_mix =  0.700 |ddv_scf|^2 =  0.130E-15

      iter #  12 total cpu time :  6009.6 secs   av.it.:  15.3
      thresh= 0.114E-08 alpha_mix =  0.700 |ddv_scf|^2 =  0.247E-16

     End of self-consistent calculation

     Convergence has been achieved 


     Representation #  3 mode #   3

     Self-consistent Calculation

      iter #   1 total cpu time :  6013.6 secs   av.it.:   8.4
      thresh= 0.100E-01 alpha_mix =  0.700 |ddv_scf|^2 =  0.926E-05

      iter #   2 total cpu time :  6019.4 secs   av.it.:  15.2
      thresh= 0.304E-03 alpha_mix =  0.700 |ddv_scf|^2 =  0.946E-05

      iter #   3 total cpu time :  6024.9 secs   av.it.:  14.5
      thresh= 0.308E-03 alpha_mix =  0.700 |ddv_scf|^2 =  0.504E-08

      iter #   4 total cpu time :  6030.7 secs   av.it.:  15.1
      thresh= 0.710E-05 alpha_mix =  0.700 |ddv_scf|^2 =  0.118E-09

      iter #   5 total cpu time :  6036.6 secs   av.it.:  15.5
      thresh= 0.109E-05 alpha_mix =  0.700 |ddv_scf|^2 =  0.632E-11

      iter #   6 total cpu time :  6042.3 secs   av.it.:  14.8
      thresh= 0.251E-06 alpha_mix =  0.700 |ddv_scf|^2 =  0.347E-13

      iter #   7 total cpu time :  6048.2 secs   av.it.:  15.5
      thresh= 0.186E-07 alpha_mix =  0.700 |ddv_scf|^2 =  0.116E-14

      iter #   8 total cpu time :  6053.9 secs   av.it.:  15.1
      thresh= 0.341E-08 alpha_mix =  0.700 |ddv_scf|^2 =  0.908E-17

     End of self-consistent calculation

     Convergence has been achieved 


     Representation #  4 mode #   4

     Self-consistent Calculation

      iter #   1 total cpu time :  6056.9 secs   av.it.:   5.6
      thresh= 0.100E-01 alpha_mix =  0.700 |ddv_scf|^2 =  0.528E-06

      iter #   2 total cpu time :  6062.6 secs   av.it.:  15.1
      thresh= 0.727E-04 alpha_mix =  0.700 |ddv_scf|^2 =  0.405E-06

      iter #   3 total cpu time :  6068.3 secs   av.it.:  14.6
      thresh= 0.636E-04 alpha_mix =  0.700 |ddv_scf|^2 =  0.126E-08

      iter #   4 total cpu time :  6074.1 secs   av.it.:  15.3
      thresh= 0.354E-05 alpha_mix =  0.700 |ddv_scf|^2 =  0.632E-10

      iter #   5 total cpu time :  6079.8 secs   av.it.:  15.1
      thresh= 0.795E-06 alpha_mix =  0.700 |ddv_scf|^2 =  0.936E-12

      iter #   6 total cpu time :  6085.7 secs   av.it.:  15.4
      thresh= 0.967E-07 alpha_mix =  0.700 |ddv_scf|^2 =  0.485E-14

      iter #   7 total cpu time :  6092.2 secs   av.it.:  15.3
      thresh= 0.696E-08 alpha_mix =  0.700 |ddv_scf|^2 =  0.244E-15

      iter #   8 total cpu time :  6098.0 secs   av.it.:  15.4
      thresh= 0.156E-08 alpha_mix =  0.700 |ddv_scf|^2 =  0.221E-17

     End of self-consistent calculation

     Convergence has been achieved 


     Representation #  5 mode #   5

     Self-consistent Calculation

      iter #   1 total cpu time :  6101.1 secs   av.it.:   5.9
      thresh= 0.100E-01 alpha_mix =  0.700 |ddv_scf|^2 =  0.166E-05

      iter #   2 total cpu time :  6106.8 secs   av.it.:  15.0
      thresh= 0.129E-03 alpha_mix =  0.700 |ddv_scf|^2 =  0.263E-05

      iter #   3 total cpu time :  6112.2 secs   av.it.:  14.2
      thresh= 0.162E-03 alpha_mix =  0.700 |ddv_scf|^2 =  0.241E-08

      iter #   4 total cpu time :  6118.0 secs   av.it.:  15.1
      thresh= 0.491E-05 alpha_mix =  0.700 |ddv_scf|^2 =  0.120E-09

      iter #   5 total cpu time :  6123.6 secs   av.it.:  14.6
      thresh= 0.110E-05 alpha_mix =  0.700 |ddv_scf|^2 =  0.198E-11

      iter #   6 total cpu time :  6129.4 secs   av.it.:  15.1
      thresh= 0.141E-06 alpha_mix =  0.700 |ddv_scf|^2 =  0.228E-13

      iter #   7 total cpu time :  6135.0 secs   av.it.:  14.8
      thresh= 0.151E-07 alpha_mix =  0.700 |ddv_scf|^2 =  0.305E-15

      iter #   8 total cpu time :  6140.7 secs   av.it.:  15.1
      thresh= 0.175E-08 alpha_mix =  0.700 |ddv_scf|^2 =  0.682E-17

     End of self-consistent calculation

     Convergence has been achieved 


     Representation #  6 mode #   6

     Self-consistent Calculation

      iter #   1 total cpu time :  6144.8 secs   av.it.:   8.7
      thresh= 0.100E-01 alpha_mix =  0.700 |ddv_scf|^2 =  0.207E-04

      iter #   2 total cpu time :  6150.5 secs   av.it.:  15.1
      thresh= 0.455E-03 alpha_mix =  0.700 |ddv_scf|^2 =  0.393E-04

      iter #   3 total cpu time :  6156.0 secs   av.it.:  14.2
      thresh= 0.627E-03 alpha_mix =  0.700 |ddv_scf|^2 =  0.184E-07

      iter #   4 total cpu time :  6161.5 secs   av.it.:  14.5
      thresh= 0.136E-04 alpha_mix =  0.700 |ddv_scf|^2 =  0.155E-09

      iter #   5 total cpu time :  6167.4 secs   av.it.:  15.6
      thresh= 0.125E-05 alpha_mix =  0.700 |ddv_scf|^2 =  0.940E-11

      iter #   6 total cpu time :  6172.9 secs   av.it.:  14.2
      thresh= 0.307E-06 alpha_mix =  0.700 |ddv_scf|^2 =  0.100E-12

      iter #   7 total cpu time :  6178.7 secs   av.it.:  15.4
      thresh= 0.316E-07 alpha_mix =  0.700 |ddv_scf|^2 =  0.140E-14

      iter #   8 total cpu time :  6184.6 secs   av.it.:  15.6
      thresh= 0.375E-08 alpha_mix =  0.700 |ddv_scf|^2 =  0.108E-16

     End of self-consistent calculation

     Convergence has been achieved 
 
     Number of q in the star =   12
     List of q in the star:
          1  -1.000000000   0.333333333   0.000000000
          2  -1.000000000  -0.333333333   0.000000000
          3  -1.000000000   0.000000000   0.333333333
          4   1.000000000   0.000000000  -0.333333333
          5   0.000000000  -0.333333333  -1.000000000
          6   0.333333333   0.000000000  -1.000000000
          7  -0.333333333   0.000000000   1.000000000
          8   0.000000000  -1.000000000  -0.333333333
          9   0.000000000  -1.000000000   0.333333333
         10   0.333333333   1.000000000   0.000000000
         11  -0.333333333   1.000000000   0.000000000
         12   0.000000000   0.333333333   1.000000000

     Diagonalizing the dynamical matrix

     q = (   -1.000000000   0.333333333   0.000000000 ) 

 **************************************************************************
     omega( 1) =       0.865709 [THz] =      28.876945 [cm-1]
     omega( 2) =       0.967216 [THz] =      32.262849 [cm-1]
     omega( 3) =       1.689869 [THz] =      56.367967 [cm-1]
     omega( 4) =       2.311852 [THz] =      77.115098 [cm-1]
     omega( 5) =       2.407813 [THz] =      80.316000 [cm-1]
     omega( 6) =       2.885240 [THz] =      96.241249 [cm-1]
 **************************************************************************

     Mode symmetry, C_2v (mm2)  point group:

     omega(  1 -  1) =         28.9  [cm-1]   --> B_1  D_3  S_3      
     omega(  2 -  2) =         32.3  [cm-1]   --> B_2  D_4  S_4      
     omega(  3 -  3) =         56.4  [cm-1]   --> A_1  D_1  S_1      
     omega(  4 -  4) =         77.1  [cm-1]   --> B_1  D_3  S_3      
     omega(  5 -  5) =         80.3  [cm-1]   --> B_2  D_4  S_4      
     omega(  6 -  6) =         96.2  [cm-1]   --> A_1  D_1  S_1      

 **************************************************************************
 
     init_run     :      8.18s CPU      9.09s WALL (      15 calls)
     electrons    :    218.32s CPU    239.30s WALL (      15 calls)

     Called by init_run:
     wfcinit      :      0.00s CPU      0.00s WALL (      15 calls)
     potinit      :      0.94s CPU      1.05s WALL (      15 calls)

     Called by electrons:
     c_bands      :    218.29s CPU    239.21s WALL (      15 calls)
     v_of_rho     :      0.51s CPU      0.53s WALL (      16 calls)
     newd         :      0.95s CPU      0.96s WALL (      16 calls)

     Called by c_bands:
     init_us_2    :      6.63s CPU      6.64s WALL (   44490 calls)
     cegterg      :    195.97s CPU    205.92s WALL (    2387 calls)

     Called by *egterg:
     h_psi        :    175.20s CPU    185.68s WALL (   42071 calls)
     s_psi        :    149.98s CPU    152.86s WALL ( 1710156 calls)
     g_psi        :      1.58s CPU      1.46s WALL (   38442 calls)
     cdiaghg      :     14.14s CPU     14.30s WALL (   39684 calls)

     Called by h_psi:
     add_vuspsi   :     92.96s CPU     96.14s WALL (  856319 calls)

     General routines
     calbec       :    233.80s CPU    228.67s WALL ( 1779693 calls)
     fft          :     30.47s CPU     32.69s WALL (   17427 calls)
     ffts         :      3.03s CPU      3.54s WALL (    6426 calls)
     fftw         :   3805.75s CPU   4090.57s WALL (14619966 calls)
     interpolate  :      0.08s CPU      0.08s WALL (      31 calls)
     davcio       :      1.23s CPU     18.59s WALL (  207567 calls)
 
     Parallel routines
     fft_scatter  :   1766.52s CPU   2048.53s WALL (14643819 calls)
 
     PHONON       :     1h36m CPU        1h43m WALL

     INITIALIZATION: 
     phq_setup    :      1.15s CPU      1.52s WALL (      16 calls)
     phq_init     :     60.38s CPU     62.13s WALL (      16 calls)
 
     phq_init     :     60.38s CPU     62.13s WALL (      16 calls)
     set_drhoc    :     18.57s CPU     18.60s WALL (      48 calls)
     init_vloc    :      0.17s CPU      0.17s WALL (      16 calls)
     init_us_1    :      3.50s CPU      3.55s WALL (      16 calls)
     newd         :      0.95s CPU      0.96s WALL (      16 calls)
     dvanqq       :     12.05s CPU     12.05s WALL (      16 calls)
     drho         :     24.67s CPU     25.95s WALL (      16 calls)
 
     DYNAMICAL MATRIX:
     dynmat0      :     14.02s CPU     14.45s WALL (      16 calls)
     phqscf       :   5475.71s CPU   5815.23s WALL (      16 calls)
     dynmatrix    :      0.07s CPU      0.16s WALL (      16 calls)
 
     phqscf       :   5475.71s CPU   5815.23s WALL (      16 calls)
     solve_linter :   5471.56s CPU   5807.71s WALL (      80 calls)
     drhodv       :      3.33s CPU      3.56s WALL (      80 calls)
 
     dynmat0      :     14.02s CPU     14.45s WALL (      16 calls)
     dynmat_us    :      1.30s CPU      1.33s WALL (      16 calls)
     d2ionq       :      0.04s CPU      0.05s WALL (      16 calls)
     dynmatcc     :     12.53s CPU     12.57s WALL (      16 calls)
 
     dynmat_us    :      1.30s CPU      1.33s WALL (      16 calls)
     addusdynmat  :      0.00s CPU      0.00s WALL (      16 calls)
 
     phqscf       :   5475.71s CPU   5815.23s WALL (      16 calls)
     solve_linter :   5471.56s CPU   5807.71s WALL (      80 calls)
 
     solve_linter :   5471.56s CPU   5807.71s WALL (      80 calls)
     dvqpsi_us    :     25.88s CPU     27.66s WALL (    3822 calls)
     ortho        :     16.20s CPU     16.13s WALL (   39565 calls)
     cgsolve      :   4658.89s CPU   4920.18s WALL (   39565 calls)
     incdrhoscf   :    259.36s CPU    274.52s WALL (   39565 calls)
     addusddens   :     70.36s CPU     70.94s WALL (     892 calls)
     vpsifft      :    196.14s CPU    212.46s WALL (   35599 calls)
     dv_of_drho   :     32.71s CPU     34.20s WALL (     952 calls)
     mix_pot      :      7.78s CPU     19.43s WALL (     819 calls)
     psymdvscf    :     79.60s CPU     86.53s WALL (     812 calls)
     newdq        :     67.00s CPU     67.18s WALL (     819 calls)
     adddvscf     :      5.24s CPU      5.35s WALL (   35743 calls)
     drhodvus     :      0.10s CPU      0.28s WALL (      80 calls)
 
     dvqpsi_us    :     25.88s CPU     27.66s WALL (    3822 calls)
     dvqpsi_us_on :      2.81s CPU      2.78s WALL (    3822 calls)
 
     cgsolve      :   4658.89s CPU   4920.18s WALL (   39565 calls)
     ch_psi       :   4557.10s CPU   4822.13s WALL (  814248 calls)
 
     ch_psi       :   4557.10s CPU   4822.13s WALL (  814248 calls)
     h_psiq       :   4270.85s CPU   4532.10s WALL (  814248 calls)
     last         :    274.79s CPU    277.60s WALL (  814248 calls)
 
     h_psiq       :   4270.85s CPU   4532.10s WALL (  814248 calls)
     firstfft     :   2369.82s CPU   2496.22s WALL ( 6248907 calls)
     secondfft    :   1522.83s CPU   1652.36s WALL ( 6248907 calls)
     add_vuspsi   :     92.96s CPU     96.14s WALL (  856319 calls)
 
     incdrhoscf   :    259.36s CPU    274.52s WALL (   39565 calls)
     addusdbec    :      7.82s CPU      7.75s WALL (   43339 calls)
 
     drhodvus     :      0.10s CPU      0.28s WALL (      80 calls)
 
      General routines
     calbec       :    233.80s CPU    228.67s WALL ( 1779693 calls)
     fft          :     30.47s CPU     32.69s WALL (   17427 calls)
     ffts         :      3.03s CPU      3.54s WALL (    6426 calls)
     fftw         :   3805.75s CPU   4090.57s WALL (14619966 calls)
     cinterpolate :      5.13s CPU      5.50s WALL (    1997 calls)
     davcio       :      1.23s CPU     18.59s WALL (  207567 calls)
     write_rec    :      2.91s CPU     14.43s WALL (     899 calls)
 
TACC: Shutting down parallel environment.
TACC: Shutdown complete. Exiting.
