TACC: Starting up job 2117628
TACC: Setting up parallel environment for MVAPICH ssh-based mpirun.
TACC: Setup complete. Running job script.
TACC: starting parallel tasks...

     Program PHONON v.5.0.1 starts on 17Aug2014 at 23:24:57 

     This program is part of the open-source Quantum ESPRESSO suite
     for quantum simulation of materials; please cite
         "P. Giannozzi et al., J. Phys.:Condens. Matter 21 395502 (2009);
          URL http://www.quantum-espresso.org", 
     in publications or presentations arising from this work. More details at
     http://www.quantum-espresso.org/quote.php

     Parallel version (MPI), running on    24 processors
     K-points division:     npool     =    2
     R & G space division:  proc/pool =   12

     Ultrasoft (Vanderbilt) Pseudopotentials

   Info: using nr1, nr2, nr3 values from input

   Info: using nr1s, nr2s, nr3s values from input

     IMPORTANT: XC functional enforced from input :
     Exchange-correlation      = PBESOL ( 1 410 8 0)
     EXX-fraction              =        0.00
     Any further DFT definition will be discarded
     Please, verify this is what you really want

 
     Parallelization info
     --------------------
     sticks:   dense  smooth     PW     G-vecs:    dense   smooth      PW
     Min         213      70     21                 7158     1369     223
     Max         214      71     22                 7162     1382     226
     Sum        2563     847    253                85923    16529    2685
 

     negative rho (up, down):  0.156E-01 0.000E+00


     Dynamical matrices for ( 4, 4, 4)  uniform grid of q-points
     (   8q-points):
       N         xq(1)         xq(2)         xq(3) 
       1   0.000000000   0.000000000   0.000000000
       2   0.251568987   0.251568987  -0.251568987
       3  -0.503137974  -0.503137974   0.503137974
       4   0.503137974   0.000000000   0.000000000
       5  -0.251568987  -0.754706961   0.754706961
       6   0.000000000  -0.503137974   0.503137974
       7  -1.006275948   0.000000000   0.000000000
       8  -1.006275948   0.503137974   0.000000000

     Calculation of q =    0.0000000   0.0000000   0.0000000

                                                                                

     bravais-lattice index     =            0
     lattice parameter (alat)  =      11.2174  a.u.
     unit-cell volume          =     346.3116 (a.u.)^3
     number of atoms/cell      =            2
     number of atomic types    =            2
     kinetic-energy cut-off    =      50.0000  Ry
     charge density cut-off    =     600.0000  Ry
     convergence threshold     =      1.0E-16
     beta                      =       0.7000
     number of iterations used =            4
     Exchange-correlation      = PBESOL ( 1 410 8 0)
     EXX-fraction              =        0.00


     celldm(1)=   11.21741  celldm(2)=    0.00000  celldm(3)=    0.00000
     celldm(4)=    0.00000  celldm(5)=    0.00000  celldm(6)=    0.00000

     crystal axes: (cart. coord. in units of alat)
               a(1) = (  0.0000  0.4969  0.4969 )  
               a(2) = (  0.4969  0.0000  0.4969 )  
               a(3) = (  0.4969  0.4969  0.0000 )  

     reciprocal axes: (cart. coord. in units 2 pi/alat)
               b(1) = ( -1.0063  1.0063  1.0063 )  
               b(2) = (  1.0063 -1.0063  1.0063 )  
               b(3) = (  1.0063  1.0063 -1.0063 )  


     Atoms inside the unit cell: 

   Cartesian axes

     site n.  atom      mass           positions (alat units)
        1        Pb 207.2000   tau( 1) = (    0.00000    0.00000    0.00000  )
        2        S   32.0600   tau( 2) = (    0.49688    0.49688    0.49688  )

     Computing dynamical matrix for 
                    q = (   0.0000000   0.0000000   0.0000000 )
 
     49 Sym.Ops. (with q -> -q+G )


     G cutoff = 1912.3925  (   7162 G-vectors)     FFT grid: ( 64, 64, 64)
     G cutoff =  637.4642  (   1378 G-vectors)  smooth grid: ( 36, 36, 36)
     number of k points=    72

     PseudoPot. # 1 for Pb read from file:
     /work/02599/asmiller/pseudo/gbrv/pbe_GBRV/pb_pbe_v1.uspp.F.UPF
     MD5 check sum: a5f44a0c8587cfbb5a05efeead6b9227
     Pseudo is Ultrasoft + core correction, Zval = 14.0
     Generated by new atomic code, or converted to UPF format
     Using radial grid of  899 points,  6 beta functions with: 
                l(1) =   0
                l(2) =   0
                l(3) =   1
                l(4) =   1
                l(5) =   2
                l(6) =   2
     Q(r) pseudized with  6 coefficients,  rinner =    1.000   1.000   1.000
                                                       1.000   1.000

     PseudoPot. # 2 for S  read from file:
     /work/02599/asmiller/pseudo/gbrv/pbe_GBRV/s_pbe_v1.2.uspp.F.UPF
     MD5 check sum: 18038e556f4a7980c01aa0ca135f6653
     Pseudo is Ultrasoft + core correction, Zval =  6.0
     Generated by new atomic code, or converted to UPF format
     Using radial grid of  907 points,  6 beta functions with: 
                l(1) =   0
                l(2) =   0
                l(3) =   1
                l(4) =   1
                l(5) =   2
                l(6) =   2
     Q(r) pseudized with  8 coefficients,  rinner =    1.300   1.300   1.300
                                                       1.300   1.300


     Electric field:
     Dielectric constant
     Born effective charges in two ways 


     Atomic displacements:
     There are   2 irreducible representations

     Representation     1      3 modes -T_1u G_15  G_4- To be done

     Representation     2      3 modes -T_1u G_15  G_4- To be done



     Alpha used in Ewald sum =   2.8000

     negative rho (up, down):  0.156E-01 0.000E+00
     PHONON       :     4.28s CPU         5.29s WALL


     Electric Fields Calculation

      iter #   1 total cpu time :    25.3 secs   av.it.:   7.3
      thresh= 0.100E-01 alpha_mix =  0.700 |ddv_scf|^2 =  0.394E-07

      iter #   2 total cpu time :    36.4 secs   av.it.:  16.6
      thresh= 0.199E-04 alpha_mix =  0.700 |ddv_scf|^2 =  0.903E-08

      iter #   3 total cpu time :    47.0 secs   av.it.:  16.1
      thresh= 0.950E-05 alpha_mix =  0.700 |ddv_scf|^2 =  0.177E-09

      iter #   4 total cpu time :    57.3 secs   av.it.:  15.7
      thresh= 0.133E-05 alpha_mix =  0.700 |ddv_scf|^2 =  0.144E-10

      iter #   5 total cpu time :    67.8 secs   av.it.:  15.9
      thresh= 0.379E-06 alpha_mix =  0.700 |ddv_scf|^2 =  0.122E-12

      iter #   6 total cpu time :    78.3 secs   av.it.:  16.1
      thresh= 0.349E-07 alpha_mix =  0.700 |ddv_scf|^2 =  0.349E-15

      iter #   7 total cpu time :    88.7 secs   av.it.:  16.1
      thresh= 0.187E-08 alpha_mix =  0.700 |ddv_scf|^2 =  0.127E-16

     End of electric fields calculation

          Dielectric constant in cartesian axis 

          (      35.607863060       0.000000000       0.000000000 )
          (       0.000000000      35.607863060       0.000000000 )
          (       0.000000000       0.000000000      35.607863060 )

          Effective charges (d Force / dE) in cartesian axis

           atom      1   Pb 
      Ex  (        3.68374        0.00000        0.00000 )
      Ey  (        0.00000        3.68374        0.00000 )
      Ez  (        0.00000        0.00000        3.68374 )
           atom      2   S  
      Ex  (       -3.79187        0.00000        0.00000 )
      Ey  (        0.00000       -3.79187        0.00000 )
      Ez  (        0.00000        0.00000       -3.79187 )


     Representation #  1 modes #   1  2  3

     Self-consistent Calculation

      iter #   1 total cpu time :    99.0 secs   av.it.:   5.8
      thresh= 0.100E-01 alpha_mix =  0.700 |ddv_scf|^2 =  0.374E-07

      iter #   2 total cpu time :   109.6 secs   av.it.:  16.5
      thresh= 0.193E-04 alpha_mix =  0.700 |ddv_scf|^2 =  0.813E-08

      iter #   3 total cpu time :   120.1 secs   av.it.:  16.4
      thresh= 0.902E-05 alpha_mix =  0.700 |ddv_scf|^2 =  0.164E-09

      iter #   4 total cpu time :   130.9 secs   av.it.:  17.0
      thresh= 0.128E-05 alpha_mix =  0.700 |ddv_scf|^2 =  0.122E-10

      iter #   5 total cpu time :   141.8 secs   av.it.:  17.2
      thresh= 0.349E-06 alpha_mix =  0.700 |ddv_scf|^2 =  0.462E-13

      iter #   6 total cpu time :   152.2 secs   av.it.:  16.5
      thresh= 0.215E-07 alpha_mix =  0.700 |ddv_scf|^2 =  0.229E-15

      iter #   7 total cpu time :   163.0 secs   av.it.:  17.1
      thresh= 0.151E-08 alpha_mix =  0.700 |ddv_scf|^2 =  0.412E-17

     End of self-consistent calculation

     Convergence has been achieved 


     Representation #  2 modes #   4  5  6

     Self-consistent Calculation

      iter #   1 total cpu time :   170.8 secs   av.it.:   8.1
      thresh= 0.100E-01 alpha_mix =  0.700 |ddv_scf|^2 =  0.436E-06

      iter #   2 total cpu time :   181.8 secs   av.it.:  17.8
      thresh= 0.660E-04 alpha_mix =  0.700 |ddv_scf|^2 =  0.144E-06

      iter #   3 total cpu time :   192.5 secs   av.it.:  17.2
      thresh= 0.380E-04 alpha_mix =  0.700 |ddv_scf|^2 =  0.266E-09

      iter #   4 total cpu time :   203.5 secs   av.it.:  17.9
      thresh= 0.163E-05 alpha_mix =  0.700 |ddv_scf|^2 =  0.140E-10

      iter #   5 total cpu time :   214.7 secs   av.it.:  18.0
      thresh= 0.374E-06 alpha_mix =  0.700 |ddv_scf|^2 =  0.542E-12

      iter #   6 total cpu time :   225.2 secs   av.it.:  16.7
      thresh= 0.736E-07 alpha_mix =  0.700 |ddv_scf|^2 =  0.170E-14

      iter #   7 total cpu time :   235.8 secs   av.it.:  16.7
      thresh= 0.412E-08 alpha_mix =  0.700 |ddv_scf|^2 =  0.117E-15

      iter #   8 total cpu time :   246.3 secs   av.it.:  16.7
      thresh= 0.108E-08 alpha_mix =  0.700 |ddv_scf|^2 =  0.755E-18

     End of self-consistent calculation

     Convergence has been achieved 
 
     Number of q in the star =    1
     List of q in the star:
          1   0.000000000   0.000000000   0.000000000

          Dielectric constant in cartesian axis 

          (      35.607863060       0.000000000       0.000000000 )
          (       0.000000000      35.607863060       0.000000000 )
          (       0.000000000       0.000000000      35.607863060 )

          Effective charges (d Force / dE) in cartesian axis

           atom      1   Pb 
      Ex  (        3.68374        0.00000        0.00000 )
      Ey  (        0.00000        3.68374        0.00000 )
      Ez  (        0.00000        0.00000        3.68374 )
           atom      2   S  
      Ex  (       -3.79187        0.00000        0.00000 )
      Ey  (        0.00000       -3.79187        0.00000 )
      Ez  (        0.00000        0.00000       -3.79187 )

          Effective charges (d P / du) in cartesian axis 

           atom      1   Pb 
      Px  (        3.82351        0.00000        0.00000 )
      Py  (        0.00000        3.82351        0.00000 )
      Pz  (        0.00000        0.00000        3.82351 )
           atom      2   S  
      Px  (       -3.82954        0.00000        0.00000 )
      Py  (        0.00000       -3.82954        0.00000 )
      Pz  (        0.00000        0.00000       -3.82954 )

     Diagonalizing the dynamical matrix

     q = (    0.000000000   0.000000000   0.000000000 ) 

 **************************************************************************
     omega( 1) =      -0.224076 [THz] =      -7.474357 [cm-1]
     omega( 2) =      -0.224076 [THz] =      -7.474357 [cm-1]
     omega( 3) =      -0.224076 [THz] =      -7.474357 [cm-1]
     omega( 4) =       1.971885 [THz] =      65.775013 [cm-1]
     omega( 5) =       1.971885 [THz] =      65.775013 [cm-1]
     omega( 6) =       1.971885 [THz] =      65.775013 [cm-1]
 **************************************************************************

     Mode symmetry, O_h (m-3m)  point group:

     omega(  1 -  3) =         -7.5  [cm-1]   --> T_1u G_15  G_4- I  
     omega(  4 -  6) =         65.8  [cm-1]   --> T_1u G_15  G_4- I  

 **************************************************************************

     Calculation of q =    0.2515690   0.2515690  -0.2515690
 
     Parallelization info
     --------------------
     sticks:   dense  smooth     PW     G-vecs:    dense   smooth      PW
     Min         213      70     22                 7158     1370     236
     Max         214      71     23                 7162     1384     239
     Sum        2563     847    265                85923    16529    2837
 


     bravais-lattice index     =            0
     lattice parameter (alat)  =      11.2174  a.u.
     unit-cell volume          =     346.3116 (a.u.)^3
     number of atoms/cell      =            2
     number of atomic types    =            2
     number of electrons       =        20.00
     number of Kohn-Sham states=           10
     kinetic-energy cutoff     =      50.0000  Ry
     charge density cutoff     =     600.0000  Ry
     Exchange-correlation      = PBESOL ( 1 410 8 0)
     EXX-fraction              =        0.00

     celldm(1)=  11.217414  celldm(2)=   0.000000  celldm(3)=   0.000000
     celldm(4)=   0.000000  celldm(5)=   0.000000  celldm(6)=   0.000000

     crystal axes: (cart. coord. in units of alat)
               a(1) = (   0.000000   0.496882   0.496882 )  
               a(2) = (   0.496882   0.000000   0.496882 )  
               a(3) = (   0.496882   0.496882   0.000000 )  

     reciprocal axes: (cart. coord. in units 2 pi/alat)
               b(1) = ( -1.006276  1.006276  1.006276 )  
               b(2) = (  1.006276 -1.006276  1.006276 )  
               b(3) = (  1.006276  1.006276 -1.006276 )  


     PseudoPot. # 1 for Pb read from file:
     /work/02599/asmiller/pseudo/gbrv/pbe_GBRV/pb_pbe_v1.uspp.F.UPF
     MD5 check sum: a5f44a0c8587cfbb5a05efeead6b9227
     Pseudo is Ultrasoft + core correction, Zval = 14.0
     Generated by new atomic code, or converted to UPF format
     Using radial grid of  899 points,  6 beta functions with: 
                l(1) =   0
                l(2) =   0
                l(3) =   1
                l(4) =   1
                l(5) =   2
                l(6) =   2
     Q(r) pseudized with  6 coefficients,  rinner =    1.000   1.000   1.000
                                                       1.000   1.000

     PseudoPot. # 2 for S  read from file:
     /work/02599/asmiller/pseudo/gbrv/pbe_GBRV/s_pbe_v1.2.uspp.F.UPF
     MD5 check sum: 18038e556f4a7980c01aa0ca135f6653
     Pseudo is Ultrasoft + core correction, Zval =  6.0
     Generated by new atomic code, or converted to UPF format
     Using radial grid of  907 points,  6 beta functions with: 
                l(1) =   0
                l(2) =   0
                l(3) =   1
                l(4) =   1
                l(5) =   2
                l(6) =   2
     Q(r) pseudized with  8 coefficients,  rinner =    1.300   1.300   1.300
                                                       1.300   1.300

     atomic species   valence    mass     pseudopotential
        Pb            14.00   207.20000     Pb( 1.00)
        S              6.00    32.06000     S ( 1.00)

     48 Sym. Ops., with inversion, found



   Cartesian axes

     site n.     atom                  positions (alat units)
         1           Pb  tau(   1) = (   0.0000000   0.0000000   0.0000000  )
         2           S   tau(   2) = (   0.4968816   0.4968816   0.4968816  )

     number of k points=   728

     Number of k-points >= 100: set verbosity='high' to print them.

     Dense  grid:    85923 G-vectors     FFT dimensions: (  64,  64,  64)

     Smooth grid:    16529 G-vectors     FFT dimensions: (  36,  36,  36)

     Largest allocated arrays     est. size (Mb)     dimensions
        Kohn-Sham Wavefunctions         0.03 Mb     (    191,   10)
        NL pseudopotentials             0.10 Mb     (    191,   36)
        Each V/rho on FFT grid          0.38 Mb     (  24576)
        Each G-vector array             0.05 Mb     (   7162)
        G-vector shells                 0.00 Mb     (    620)
     Largest temporary arrays     est. size (Mb)     dimensions
        Auxiliary wavefunctions         0.12 Mb     (    191,   40)
        Each subspace H/S matrix        0.02 Mb     (  40,  40)
        Each <psi_i|beta_j> matrix      0.01 Mb     (     36,   10)

     The potential is recalculated from file :
     ./_ph0/PbS.save/charge-density.dat


     negative rho (up, down):  0.156E-01 0.000E+00
     Starting wfc are   13 atomic wfcs

     total cpu time spent up to now is        0.6 secs

     per-process dynamical memory:    58.2 Mb

     Band Structure Calculation
     Davidson diagonalization with overlap

     ethr =  5.00E-11,  avg # of iterations = 29.0

     total cpu time spent up to now is       44.9 secs

     End of band structure calculation

     Number of k-points >= 100: set verbosity='high' to print the bands.

     Writing output data file PbS.save

                                                                                

     bravais-lattice index     =            0
     lattice parameter (alat)  =      11.2174  a.u.
     unit-cell volume          =     346.3116 (a.u.)^3
     number of atoms/cell      =            2
     number of atomic types    =            2
     kinetic-energy cut-off    =      50.0000  Ry
     charge density cut-off    =     600.0000  Ry
     convergence threshold     =      1.0E-16
     beta                      =       0.7000
     number of iterations used =            4
     Exchange-correlation      = PBESOL ( 1 410 8 0)
     EXX-fraction              =        0.00


     celldm(1)=   11.21741  celldm(2)=    0.00000  celldm(3)=    0.00000
     celldm(4)=    0.00000  celldm(5)=    0.00000  celldm(6)=    0.00000

     crystal axes: (cart. coord. in units of alat)
               a(1) = (  0.0000  0.4969  0.4969 )  
               a(2) = (  0.4969  0.0000  0.4969 )  
               a(3) = (  0.4969  0.4969  0.0000 )  

     reciprocal axes: (cart. coord. in units 2 pi/alat)
               b(1) = ( -1.0063  1.0063  1.0063 )  
               b(2) = (  1.0063 -1.0063  1.0063 )  
               b(3) = (  1.0063  1.0063 -1.0063 )  


     Atoms inside the unit cell: 

   Cartesian axes

     site n.  atom      mass           positions (alat units)
        1        Pb 207.2000   tau( 1) = (    0.00000    0.00000    0.00000  )
        2        S   32.0600   tau( 2) = (    0.49688    0.49688    0.49688  )

     Computing dynamical matrix for 
                    q = (   0.2515690   0.2515690  -0.2515690 )
 
      6 Sym.Ops. (no q -> -q+G )


     G cutoff = 1912.3925  (   7162 G-vectors)     FFT grid: ( 64, 64, 64)
     G cutoff =  637.4642  (   1379 G-vectors)  smooth grid: ( 36, 36, 36)
     number of k points=   728

     PseudoPot. # 1 for Pb read from file:
     /work/02599/asmiller/pseudo/gbrv/pbe_GBRV/pb_pbe_v1.uspp.F.UPF
     MD5 check sum: a5f44a0c8587cfbb5a05efeead6b9227
     Pseudo is Ultrasoft + core correction, Zval = 14.0
     Generated by new atomic code, or converted to UPF format
     Using radial grid of  899 points,  6 beta functions with: 
                l(1) =   0
                l(2) =   0
                l(3) =   1
                l(4) =   1
                l(5) =   2
                l(6) =   2
     Q(r) pseudized with  6 coefficients,  rinner =    1.000   1.000   1.000
                                                       1.000   1.000

     PseudoPot. # 2 for S  read from file:
     /work/02599/asmiller/pseudo/gbrv/pbe_GBRV/s_pbe_v1.2.uspp.F.UPF
     MD5 check sum: 18038e556f4a7980c01aa0ca135f6653
     Pseudo is Ultrasoft + core correction, Zval =  6.0
     Generated by new atomic code, or converted to UPF format
     Using radial grid of  907 points,  6 beta functions with: 
                l(1) =   0
                l(2) =   0
                l(3) =   1
                l(4) =   1
                l(5) =   2
                l(6) =   2
     Q(r) pseudized with  8 coefficients,  rinner =    1.300   1.300   1.300
                                                       1.300   1.300


     Atomic displacements:
     There are   4 irreducible representations

     Representation     1      1 modes -A_1  L_1 To be done

     Representation     2      1 modes -A_1  L_1 To be done

     Representation     3      2 modes -E    L_3 To be done

     Representation     4      2 modes -E    L_3 To be done



     Alpha used in Ewald sum =   2.8000

     negative rho (up, down):  0.156E-01 0.000E+00
     PHONON       :  4m49.49s CPU     4m59.31s WALL



     Representation #  1 mode #   1

     Self-consistent Calculation

      iter #   1 total cpu time :   307.2 secs   av.it.:   6.5
      thresh= 0.100E-01 alpha_mix =  0.700 |ddv_scf|^2 =  0.192E-03

      iter #   2 total cpu time :   321.2 secs   av.it.:  14.3
      thresh= 0.139E-02 alpha_mix =  0.700 |ddv_scf|^2 =  0.546E-02

      iter #   3 total cpu time :   332.0 secs   av.it.:  10.4
      thresh= 0.739E-02 alpha_mix =  0.700 |ddv_scf|^2 =  0.721E-06

      iter #   4 total cpu time :   347.2 secs   av.it.:  15.7
      thresh= 0.849E-04 alpha_mix =  0.700 |ddv_scf|^2 =  0.419E-06

      iter #   5 total cpu time :   360.6 secs   av.it.:  13.6
      thresh= 0.647E-04 alpha_mix =  0.700 |ddv_scf|^2 =  0.136E-08

      iter #   6 total cpu time :   376.0 secs   av.it.:  15.8
      thresh= 0.369E-05 alpha_mix =  0.700 |ddv_scf|^2 =  0.249E-09

      iter #   7 total cpu time :   389.2 secs   av.it.:  13.3
      thresh= 0.158E-05 alpha_mix =  0.700 |ddv_scf|^2 =  0.776E-11

      iter #   8 total cpu time :   403.5 secs   av.it.:  14.6
      thresh= 0.279E-06 alpha_mix =  0.700 |ddv_scf|^2 =  0.354E-11

      iter #   9 total cpu time :   417.3 secs   av.it.:  14.0
      thresh= 0.188E-06 alpha_mix =  0.700 |ddv_scf|^2 =  0.149E-10

      iter #  10 total cpu time :   430.1 secs   av.it.:  12.8
      thresh= 0.387E-06 alpha_mix =  0.700 |ddv_scf|^2 =  0.109E-13

      iter #  11 total cpu time :   445.5 secs   av.it.:  15.8
      thresh= 0.104E-07 alpha_mix =  0.700 |ddv_scf|^2 =  0.103E-13

      iter #  12 total cpu time :   459.4 secs   av.it.:  14.1
      thresh= 0.102E-07 alpha_mix =  0.700 |ddv_scf|^2 =  0.120E-15

      iter #  13 total cpu time :   474.9 secs   av.it.:  16.0
      thresh= 0.110E-08 alpha_mix =  0.700 |ddv_scf|^2 =  0.149E-16

     End of self-consistent calculation

     Convergence has been achieved 


     Representation #  2 mode #   2

     Self-consistent Calculation

      iter #   1 total cpu time :   485.7 secs   av.it.:   9.8
      thresh= 0.100E-01 alpha_mix =  0.700 |ddv_scf|^2 =  0.104E-02

      iter #   2 total cpu time :   499.6 secs   av.it.:  14.2
      thresh= 0.322E-02 alpha_mix =  0.700 |ddv_scf|^2 =  0.308E-01

      iter #   3 total cpu time :   511.2 secs   av.it.:  11.4
      thresh= 0.100E-01 alpha_mix =  0.700 |ddv_scf|^2 =  0.294E-05

      iter #   4 total cpu time :   526.3 secs   av.it.:  15.5
      thresh= 0.171E-03 alpha_mix =  0.700 |ddv_scf|^2 =  0.298E-06

      iter #   5 total cpu time :   541.2 secs   av.it.:  15.3
      thresh= 0.546E-04 alpha_mix =  0.700 |ddv_scf|^2 =  0.627E-07

      iter #   6 total cpu time :   554.3 secs   av.it.:  13.2
      thresh= 0.250E-04 alpha_mix =  0.700 |ddv_scf|^2 =  0.268E-09

      iter #   7 total cpu time :   569.0 secs   av.it.:  15.0
      thresh= 0.164E-05 alpha_mix =  0.700 |ddv_scf|^2 =  0.121E-09

      iter #   8 total cpu time :   582.2 secs   av.it.:  13.4
      thresh= 0.110E-05 alpha_mix =  0.700 |ddv_scf|^2 =  0.206E-11

      iter #   9 total cpu time :   596.9 secs   av.it.:  15.1
      thresh= 0.143E-06 alpha_mix =  0.700 |ddv_scf|^2 =  0.391E-10

      iter #  10 total cpu time :   608.2 secs   av.it.:  11.0
      thresh= 0.625E-06 alpha_mix =  0.700 |ddv_scf|^2 =  0.805E-13

      iter #  11 total cpu time :   622.3 secs   av.it.:  14.5
      thresh= 0.284E-07 alpha_mix =  0.700 |ddv_scf|^2 =  0.681E-14

      iter #  12 total cpu time :   636.6 secs   av.it.:  14.4
      thresh= 0.825E-08 alpha_mix =  0.700 |ddv_scf|^2 =  0.292E-15

      iter #  13 total cpu time :   651.2 secs   av.it.:  14.9
      thresh= 0.171E-08 alpha_mix =  0.700 |ddv_scf|^2 =  0.286E-16

     End of self-consistent calculation

     Convergence has been achieved 


     Representation #  3 modes #   3  4

     Self-consistent Calculation

      iter #   1 total cpu time :   664.5 secs   av.it.:   5.3
      thresh= 0.100E-01 alpha_mix =  0.700 |ddv_scf|^2 =  0.906E-07

      iter #   2 total cpu time :   696.8 secs   av.it.:  17.0
      thresh= 0.301E-04 alpha_mix =  0.700 |ddv_scf|^2 =  0.168E-07

      iter #   3 total cpu time :   728.7 secs   av.it.:  16.8
      thresh= 0.130E-04 alpha_mix =  0.700 |ddv_scf|^2 =  0.310E-09

      iter #   4 total cpu time :   761.7 secs   av.it.:  17.5
      thresh= 0.176E-05 alpha_mix =  0.700 |ddv_scf|^2 =  0.356E-10

      iter #   5 total cpu time :   794.3 secs   av.it.:  17.2
      thresh= 0.596E-06 alpha_mix =  0.700 |ddv_scf|^2 =  0.130E-12

      iter #   6 total cpu time :   826.3 secs   av.it.:  16.9
      thresh= 0.360E-07 alpha_mix =  0.700 |ddv_scf|^2 =  0.910E-15

      iter #   7 total cpu time :   859.2 secs   av.it.:  17.4
      thresh= 0.302E-08 alpha_mix =  0.700 |ddv_scf|^2 =  0.179E-16

     End of self-consistent calculation

     Convergence has been achieved 


     Representation #  4 modes #   5  6

     Self-consistent Calculation

      iter #   1 total cpu time :   878.6 secs   av.it.:   8.7
      thresh= 0.100E-01 alpha_mix =  0.700 |ddv_scf|^2 =  0.103E-05

      iter #   2 total cpu time :   912.4 secs   av.it.:  18.0
      thresh= 0.101E-03 alpha_mix =  0.700 |ddv_scf|^2 =  0.330E-06

      iter #   3 total cpu time :   945.4 secs   av.it.:  17.5
      thresh= 0.574E-04 alpha_mix =  0.700 |ddv_scf|^2 =  0.474E-09

      iter #   4 total cpu time :   979.3 secs   av.it.:  18.1
      thresh= 0.218E-05 alpha_mix =  0.700 |ddv_scf|^2 =  0.371E-10

      iter #   5 total cpu time :  1013.3 secs   av.it.:  18.2
      thresh= 0.609E-06 alpha_mix =  0.700 |ddv_scf|^2 =  0.120E-11

      iter #   6 total cpu time :  1045.8 secs   av.it.:  17.3
      thresh= 0.110E-06 alpha_mix =  0.700 |ddv_scf|^2 =  0.385E-14

      iter #   7 total cpu time :  1078.0 secs   av.it.:  17.0
      thresh= 0.621E-08 alpha_mix =  0.700 |ddv_scf|^2 =  0.231E-15

      iter #   8 total cpu time :  1110.2 secs   av.it.:  17.2
      thresh= 0.152E-08 alpha_mix =  0.700 |ddv_scf|^2 =  0.314E-17

     End of self-consistent calculation

     Convergence has been achieved 
 
     Number of q in the star =    8
     List of q in the star:
          1   0.251568987   0.251568987  -0.251568987
          2  -0.251568987  -0.251568987  -0.251568987
          3   0.251568987  -0.251568987  -0.251568987
          4  -0.251568987  -0.251568987   0.251568987
          5  -0.251568987   0.251568987  -0.251568987
          6   0.251568987   0.251568987   0.251568987
          7  -0.251568987   0.251568987   0.251568987
          8   0.251568987  -0.251568987   0.251568987

     Diagonalizing the dynamical matrix

     q = (    0.251568987   0.251568987  -0.251568987 ) 

 **************************************************************************
     omega( 1) =       1.159862 [THz] =      38.688821 [cm-1]
     omega( 2) =       1.159862 [THz] =      38.688821 [cm-1]
     omega( 3) =       2.173233 [THz] =      72.491247 [cm-1]
     omega( 4) =       4.935022 [THz] =     164.614618 [cm-1]
     omega( 5) =       4.935022 [THz] =     164.614618 [cm-1]
     omega( 6) =       6.903079 [THz] =     230.261928 [cm-1]
 **************************************************************************

     Mode symmetry, C_3v (3m)   point group:

     omega(  1 -  2) =         38.7  [cm-1]   --> E    L_3           
     omega(  3 -  3) =         72.5  [cm-1]   --> A_1  L_1           
     omega(  4 -  5) =        164.6  [cm-1]   --> E    L_3           
     omega(  6 -  6) =        230.3  [cm-1]   --> A_1  L_1           

 **************************************************************************

     Calculation of q =   -0.5031380  -0.5031380   0.5031380
 
     Parallelization info
     --------------------
     sticks:   dense  smooth     PW     G-vecs:    dense   smooth      PW
     Min         213      70     24                 7158     1368     273
     Max         214      71     25                 7162     1391     275
     Sum        2563     847    295                85923    16529    3287
 


     bravais-lattice index     =            0
     lattice parameter (alat)  =      11.2174  a.u.
     unit-cell volume          =     346.3116 (a.u.)^3
     number of atoms/cell      =            2
     number of atomic types    =            2
     number of electrons       =        20.00
     number of Kohn-Sham states=           10
     kinetic-energy cutoff     =      50.0000  Ry
     charge density cutoff     =     600.0000  Ry
     Exchange-correlation      = PBESOL ( 1 410 8 0)
     EXX-fraction              =        0.00

     celldm(1)=  11.217414  celldm(2)=   0.000000  celldm(3)=   0.000000
     celldm(4)=   0.000000  celldm(5)=   0.000000  celldm(6)=   0.000000

     crystal axes: (cart. coord. in units of alat)
               a(1) = (   0.000000   0.496882   0.496882 )  
               a(2) = (   0.496882   0.000000   0.496882 )  
               a(3) = (   0.496882   0.496882   0.000000 )  

     reciprocal axes: (cart. coord. in units 2 pi/alat)
               b(1) = ( -1.006276  1.006276  1.006276 )  
               b(2) = (  1.006276 -1.006276  1.006276 )  
               b(3) = (  1.006276  1.006276 -1.006276 )  


     PseudoPot. # 1 for Pb read from file:
     /work/02599/asmiller/pseudo/gbrv/pbe_GBRV/pb_pbe_v1.uspp.F.UPF
     MD5 check sum: a5f44a0c8587cfbb5a05efeead6b9227
     Pseudo is Ultrasoft + core correction, Zval = 14.0
     Generated by new atomic code, or converted to UPF format
     Using radial grid of  899 points,  6 beta functions with: 
                l(1) =   0
                l(2) =   0
                l(3) =   1
                l(4) =   1
                l(5) =   2
                l(6) =   2
     Q(r) pseudized with  6 coefficients,  rinner =    1.000   1.000   1.000
                                                       1.000   1.000

     PseudoPot. # 2 for S  read from file:
     /work/02599/asmiller/pseudo/gbrv/pbe_GBRV/s_pbe_v1.2.uspp.F.UPF
     MD5 check sum: 18038e556f4a7980c01aa0ca135f6653
     Pseudo is Ultrasoft + core correction, Zval =  6.0
     Generated by new atomic code, or converted to UPF format
     Using radial grid of  907 points,  6 beta functions with: 
                l(1) =   0
                l(2) =   0
                l(3) =   1
                l(4) =   1
                l(5) =   2
                l(6) =   2
     Q(r) pseudized with  8 coefficients,  rinner =    1.300   1.300   1.300
                                                       1.300   1.300

     atomic species   valence    mass     pseudopotential
        Pb            14.00   207.20000     Pb( 1.00)
        S              6.00    32.06000     S ( 1.00)

     48 Sym. Ops., with inversion, found



   Cartesian axes

     site n.     atom                  positions (alat units)
         1           Pb  tau(   1) = (   0.0000000   0.0000000   0.0000000  )
         2           S   tau(   2) = (   0.4968816   0.4968816   0.4968816  )

     number of k points=   378

     Number of k-points >= 100: set verbosity='high' to print them.

     Dense  grid:    85923 G-vectors     FFT dimensions: (  64,  64,  64)

     Smooth grid:    16529 G-vectors     FFT dimensions: (  36,  36,  36)

     Largest allocated arrays     est. size (Mb)     dimensions
        Kohn-Sham Wavefunctions         0.03 Mb     (    187,   10)
        NL pseudopotentials             0.10 Mb     (    187,   36)
        Each V/rho on FFT grid          0.38 Mb     (  24576)
        Each G-vector array             0.05 Mb     (   7162)
        G-vector shells                 0.00 Mb     (    623)
     Largest temporary arrays     est. size (Mb)     dimensions
        Auxiliary wavefunctions         0.11 Mb     (    187,   40)
        Each subspace H/S matrix        0.02 Mb     (  40,  40)
        Each <psi_i|beta_j> matrix      0.01 Mb     (     36,   10)

     The potential is recalculated from file :
     ./_ph0/PbS.save/charge-density.dat


     negative rho (up, down):  0.156E-01 0.000E+00
     Starting wfc are   13 atomic wfcs

     total cpu time spent up to now is       46.6 secs

     per-process dynamical memory:    67.7 Mb

     Band Structure Calculation
     Davidson diagonalization with overlap

     ethr =  5.00E-11,  avg # of iterations = 28.7

     total cpu time spent up to now is       69.5 secs

     End of band structure calculation

     Number of k-points >= 100: set verbosity='high' to print the bands.

     Writing output data file PbS.save

                                                                                

     bravais-lattice index     =            0
     lattice parameter (alat)  =      11.2174  a.u.
     unit-cell volume          =     346.3116 (a.u.)^3
     number of atoms/cell      =            2
     number of atomic types    =            2
     kinetic-energy cut-off    =      50.0000  Ry
     charge density cut-off    =     600.0000  Ry
     convergence threshold     =      1.0E-16
     beta                      =       0.7000
     number of iterations used =            4
     Exchange-correlation      = PBESOL ( 1 410 8 0)
     EXX-fraction              =        0.00


     celldm(1)=   11.21741  celldm(2)=    0.00000  celldm(3)=    0.00000
     celldm(4)=    0.00000  celldm(5)=    0.00000  celldm(6)=    0.00000

     crystal axes: (cart. coord. in units of alat)
               a(1) = (  0.0000  0.4969  0.4969 )  
               a(2) = (  0.4969  0.0000  0.4969 )  
               a(3) = (  0.4969  0.4969  0.0000 )  

     reciprocal axes: (cart. coord. in units 2 pi/alat)
               b(1) = ( -1.0063  1.0063  1.0063 )  
               b(2) = (  1.0063 -1.0063  1.0063 )  
               b(3) = (  1.0063  1.0063 -1.0063 )  


     Atoms inside the unit cell: 

   Cartesian axes

     site n.  atom      mass           positions (alat units)
        1        Pb 207.2000   tau( 1) = (    0.00000    0.00000    0.00000  )
        2        S   32.0600   tau( 2) = (    0.49688    0.49688    0.49688  )

     Computing dynamical matrix for 
                    q = (  -0.5031380  -0.5031380   0.5031380 )
 
     13 Sym.Ops. (with q -> -q+G )


     G cutoff = 1912.3925  (   7162 G-vectors)     FFT grid: ( 64, 64, 64)
     G cutoff =  637.4642  (   1382 G-vectors)  smooth grid: ( 36, 36, 36)
     number of k points=   378

     PseudoPot. # 1 for Pb read from file:
     /work/02599/asmiller/pseudo/gbrv/pbe_GBRV/pb_pbe_v1.uspp.F.UPF
     MD5 check sum: a5f44a0c8587cfbb5a05efeead6b9227
     Pseudo is Ultrasoft + core correction, Zval = 14.0
     Generated by new atomic code, or converted to UPF format
     Using radial grid of  899 points,  6 beta functions with: 
                l(1) =   0
                l(2) =   0
                l(3) =   1
                l(4) =   1
                l(5) =   2
                l(6) =   2
     Q(r) pseudized with  6 coefficients,  rinner =    1.000   1.000   1.000
                                                       1.000   1.000

     PseudoPot. # 2 for S  read from file:
     /work/02599/asmiller/pseudo/gbrv/pbe_GBRV/s_pbe_v1.2.uspp.F.UPF
     MD5 check sum: 18038e556f4a7980c01aa0ca135f6653
     Pseudo is Ultrasoft + core correction, Zval =  6.0
     Generated by new atomic code, or converted to UPF format
     Using radial grid of  907 points,  6 beta functions with: 
                l(1) =   0
                l(2) =   0
                l(3) =   1
                l(4) =   1
                l(5) =   2
                l(6) =   2
     Q(r) pseudized with  8 coefficients,  rinner =    1.300   1.300   1.300
                                                       1.300   1.300


     Atomic displacements:
     There are   4 irreducible representations

     Representation     1      1 modes -A_1g L_1 To be done

     Representation     2      2 modes -E_g  L_3 To be done

     Representation     3      1 modes -A_2u L_2' To be done

     Representation     4      2 modes -E_u  L_3' To be done



     Alpha used in Ewald sum =   2.8000

     negative rho (up, down):  0.156E-01 0.000E+00
     PHONON       : 18m34.67s CPU    18m58.87s WALL



     Representation #  1 mode #   1

     Self-consistent Calculation

      iter #   1 total cpu time :  1142.5 secs   av.it.:   5.0
      thresh= 0.100E-01 alpha_mix =  0.700 |ddv_scf|^2 =  0.131E-04

      iter #   2 total cpu time :  1149.9 secs   av.it.:  14.0
      thresh= 0.362E-03 alpha_mix =  0.700 |ddv_scf|^2 =  0.425E-04

      iter #   3 total cpu time :  1156.5 secs   av.it.:  12.2
      thresh= 0.652E-03 alpha_mix =  0.700 |ddv_scf|^2 =  0.331E-08

      iter #   4 total cpu time :  1164.9 secs   av.it.:  16.1
      thresh= 0.575E-05 alpha_mix =  0.700 |ddv_scf|^2 =  0.299E-09

      iter #   5 total cpu time :  1172.8 secs   av.it.:  15.3
      thresh= 0.173E-05 alpha_mix =  0.700 |ddv_scf|^2 =  0.409E-11

      iter #   6 total cpu time :  1180.5 secs   av.it.:  14.7
      thresh= 0.202E-06 alpha_mix =  0.700 |ddv_scf|^2 =  0.416E-13

      iter #   7 total cpu time :  1188.9 secs   av.it.:  15.5
      thresh= 0.204E-07 alpha_mix =  0.700 |ddv_scf|^2 =  0.178E-15

      iter #   8 total cpu time :  1196.8 secs   av.it.:  15.3
      thresh= 0.133E-08 alpha_mix =  0.700 |ddv_scf|^2 =  0.684E-16

     End of self-consistent calculation

     Convergence has been achieved 


     Representation #  2 modes #   2  3

     Self-consistent Calculation

      iter #   1 total cpu time :  1203.6 secs   av.it.:   4.9
      thresh= 0.100E-01 alpha_mix =  0.700 |ddv_scf|^2 =  0.979E-07

      iter #   2 total cpu time :  1219.9 secs   av.it.:  15.7
      thresh= 0.313E-04 alpha_mix =  0.700 |ddv_scf|^2 =  0.161E-07

      iter #   3 total cpu time :  1235.9 secs   av.it.:  15.9
      thresh= 0.127E-04 alpha_mix =  0.700 |ddv_scf|^2 =  0.166E-09

      iter #   4 total cpu time :  1252.0 secs   av.it.:  15.9
      thresh= 0.129E-05 alpha_mix =  0.700 |ddv_scf|^2 =  0.720E-12

      iter #   5 total cpu time :  1268.7 secs   av.it.:  16.6
      thresh= 0.848E-07 alpha_mix =  0.700 |ddv_scf|^2 =  0.405E-14

      iter #   6 total cpu time :  1285.8 secs   av.it.:  17.0
      thresh= 0.637E-08 alpha_mix =  0.700 |ddv_scf|^2 =  0.267E-16

     End of self-consistent calculation

     Convergence has been achieved 


     Representation #  3 mode #   4

     Self-consistent Calculation

      iter #   1 total cpu time :  1291.7 secs   av.it.:   9.8
      thresh= 0.100E-01 alpha_mix =  0.700 |ddv_scf|^2 =  0.899E-04

      iter #   2 total cpu time :  1299.6 secs   av.it.:  15.2
      thresh= 0.948E-03 alpha_mix =  0.700 |ddv_scf|^2 =  0.483E-03

      iter #   3 total cpu time :  1306.3 secs   av.it.:  12.6
      thresh= 0.220E-02 alpha_mix =  0.700 |ddv_scf|^2 =  0.943E-06

      iter #   4 total cpu time :  1313.9 secs   av.it.:  14.6
      thresh= 0.971E-04 alpha_mix =  0.700 |ddv_scf|^2 =  0.185E-07

      iter #   5 total cpu time :  1321.2 secs   av.it.:  13.8
      thresh= 0.136E-04 alpha_mix =  0.700 |ddv_scf|^2 =  0.413E-09

      iter #   6 total cpu time :  1328.9 secs   av.it.:  14.7
      thresh= 0.203E-05 alpha_mix =  0.700 |ddv_scf|^2 =  0.428E-12

      iter #   7 total cpu time :  1336.7 secs   av.it.:  15.2
      thresh= 0.654E-07 alpha_mix =  0.700 |ddv_scf|^2 =  0.129E-13

      iter #   8 total cpu time :  1343.7 secs   av.it.:  13.3
      thresh= 0.114E-07 alpha_mix =  0.700 |ddv_scf|^2 =  0.817E-15

      iter #   9 total cpu time :  1351.0 secs   av.it.:  13.9
      thresh= 0.286E-08 alpha_mix =  0.700 |ddv_scf|^2 =  0.153E-16

     End of self-consistent calculation

     Convergence has been achieved 


     Representation #  4 modes #   5  6

     Self-consistent Calculation

      iter #   1 total cpu time :  1361.2 secs   av.it.:   8.5
      thresh= 0.100E-01 alpha_mix =  0.700 |ddv_scf|^2 =  0.108E-05

      iter #   2 total cpu time :  1378.6 secs   av.it.:  17.3
      thresh= 0.104E-03 alpha_mix =  0.700 |ddv_scf|^2 =  0.340E-06

      iter #   3 total cpu time :  1395.3 secs   av.it.:  16.6
      thresh= 0.583E-04 alpha_mix =  0.700 |ddv_scf|^2 =  0.203E-09

      iter #   4 total cpu time :  1412.7 secs   av.it.:  17.5
      thresh= 0.142E-05 alpha_mix =  0.700 |ddv_scf|^2 =  0.590E-11

      iter #   5 total cpu time :  1429.2 secs   av.it.:  16.3
      thresh= 0.243E-06 alpha_mix =  0.700 |ddv_scf|^2 =  0.316E-13

      iter #   6 total cpu time :  1446.0 secs   av.it.:  16.8
      thresh= 0.178E-07 alpha_mix =  0.700 |ddv_scf|^2 =  0.603E-15

      iter #   7 total cpu time :  1462.6 secs   av.it.:  16.5
      thresh= 0.245E-08 alpha_mix =  0.700 |ddv_scf|^2 =  0.471E-17

     End of self-consistent calculation

     Convergence has been achieved 
 
     Number of q in the star =    4
     List of q in the star:
          1  -0.503137974  -0.503137974   0.503137974
          2  -0.503137974  -0.503137974  -0.503137974
          3  -0.503137974   0.503137974   0.503137974
          4  -0.503137974   0.503137974  -0.503137974

     Diagonalizing the dynamical matrix

     q = (   -0.503137974  -0.503137974   0.503137974 ) 

 **************************************************************************
     omega( 1) =       1.598953 [THz] =      53.335331 [cm-1]
     omega( 2) =       1.598953 [THz] =      53.335331 [cm-1]
     omega( 3) =       3.192098 [THz] =     106.476927 [cm-1]
     omega( 4) =       5.891443 [THz] =     196.517399 [cm-1]
     omega( 5) =       5.891443 [THz] =     196.517399 [cm-1]
     omega( 6) =       6.966938 [THz] =     232.392026 [cm-1]
 **************************************************************************

     Mode symmetry, D_3d (-3m)  point group:

     omega(  1 -  2) =         53.3  [cm-1]   --> E_u  L_3'          
     omega(  3 -  3) =        106.5  [cm-1]   --> A_2u L_2'          
     omega(  4 -  5) =        196.5  [cm-1]   --> E_g  L_3           
     omega(  6 -  6) =        232.4  [cm-1]   --> A_1g L_1           

 **************************************************************************

     Calculation of q =    0.5031380   0.0000000   0.0000000
 
     Parallelization info
     --------------------
     sticks:   dense  smooth     PW     G-vecs:    dense   smooth      PW
     Min         213      70     22                 7158     1370     240
     Max         214      71     23                 7162     1382     243
     Sum        2563     847    265                85923    16529    2891
 


     bravais-lattice index     =            0
     lattice parameter (alat)  =      11.2174  a.u.
     unit-cell volume          =     346.3116 (a.u.)^3
     number of atoms/cell      =            2
     number of atomic types    =            2
     number of electrons       =        20.00
     number of Kohn-Sham states=           10
     kinetic-energy cutoff     =      50.0000  Ry
     charge density cutoff     =     600.0000  Ry
     Exchange-correlation      = PBESOL ( 1 410 8 0)
     EXX-fraction              =        0.00

     celldm(1)=  11.217414  celldm(2)=   0.000000  celldm(3)=   0.000000
     celldm(4)=   0.000000  celldm(5)=   0.000000  celldm(6)=   0.000000

     crystal axes: (cart. coord. in units of alat)
               a(1) = (   0.000000   0.496882   0.496882 )  
               a(2) = (   0.496882   0.000000   0.496882 )  
               a(3) = (   0.496882   0.496882   0.000000 )  

     reciprocal axes: (cart. coord. in units 2 pi/alat)
               b(1) = ( -1.006276  1.006276  1.006276 )  
               b(2) = (  1.006276 -1.006276  1.006276 )  
               b(3) = (  1.006276  1.006276 -1.006276 )  


     PseudoPot. # 1 for Pb read from file:
     /work/02599/asmiller/pseudo/gbrv/pbe_GBRV/pb_pbe_v1.uspp.F.UPF
     MD5 check sum: a5f44a0c8587cfbb5a05efeead6b9227
     Pseudo is Ultrasoft + core correction, Zval = 14.0
     Generated by new atomic code, or converted to UPF format
     Using radial grid of  899 points,  6 beta functions with: 
                l(1) =   0
                l(2) =   0
                l(3) =   1
                l(4) =   1
                l(5) =   2
                l(6) =   2
     Q(r) pseudized with  6 coefficients,  rinner =    1.000   1.000   1.000
                                                       1.000   1.000

     PseudoPot. # 2 for S  read from file:
     /work/02599/asmiller/pseudo/gbrv/pbe_GBRV/s_pbe_v1.2.uspp.F.UPF
     MD5 check sum: 18038e556f4a7980c01aa0ca135f6653
     Pseudo is Ultrasoft + core correction, Zval =  6.0
     Generated by new atomic code, or converted to UPF format
     Using radial grid of  907 points,  6 beta functions with: 
                l(1) =   0
                l(2) =   0
                l(3) =   1
                l(4) =   1
                l(5) =   2
                l(6) =   2
     Q(r) pseudized with  8 coefficients,  rinner =    1.300   1.300   1.300
                                                       1.300   1.300

     atomic species   valence    mass     pseudopotential
        Pb            14.00   207.20000     Pb( 1.00)
        S              6.00    32.06000     S ( 1.00)

     48 Sym. Ops., with inversion, found



   Cartesian axes

     site n.     atom                  positions (alat units)
         1           Pb  tau(   1) = (   0.0000000   0.0000000   0.0000000  )
         2           S   tau(   2) = (   0.4968816   0.4968816   0.4968816  )

     number of k points=   588

     Number of k-points >= 100: set verbosity='high' to print them.

     Dense  grid:    85923 G-vectors     FFT dimensions: (  64,  64,  64)

     Smooth grid:    16529 G-vectors     FFT dimensions: (  36,  36,  36)

     Largest allocated arrays     est. size (Mb)     dimensions
        Kohn-Sham Wavefunctions         0.03 Mb     (    190,   10)
        NL pseudopotentials             0.10 Mb     (    190,   36)
        Each V/rho on FFT grid          0.38 Mb     (  24576)
        Each G-vector array             0.05 Mb     (   7162)
        G-vector shells                 0.00 Mb     (    620)
     Largest temporary arrays     est. size (Mb)     dimensions
        Auxiliary wavefunctions         0.12 Mb     (    190,   40)
        Each subspace H/S matrix        0.02 Mb     (  40,  40)
        Each <psi_i|beta_j> matrix      0.01 Mb     (     36,   10)

     The potential is recalculated from file :
     ./_ph0/PbS.save/charge-density.dat


     negative rho (up, down):  0.156E-01 0.000E+00
     Starting wfc are   13 atomic wfcs

     total cpu time spent up to now is       70.7 secs

     per-process dynamical memory:    67.7 Mb

     Band Structure Calculation
     Davidson diagonalization with overlap

     ethr =  5.00E-11,  avg # of iterations = 28.6

     total cpu time spent up to now is      105.2 secs

     End of band structure calculation

     Number of k-points >= 100: set verbosity='high' to print the bands.

     Writing output data file PbS.save

                                                                                

     bravais-lattice index     =            0
     lattice parameter (alat)  =      11.2174  a.u.
     unit-cell volume          =     346.3116 (a.u.)^3
     number of atoms/cell      =            2
     number of atomic types    =            2
     kinetic-energy cut-off    =      50.0000  Ry
     charge density cut-off    =     600.0000  Ry
     convergence threshold     =      1.0E-16
     beta                      =       0.7000
     number of iterations used =            4
     Exchange-correlation      = PBESOL ( 1 410 8 0)
     EXX-fraction              =        0.00


     celldm(1)=   11.21741  celldm(2)=    0.00000  celldm(3)=    0.00000
     celldm(4)=    0.00000  celldm(5)=    0.00000  celldm(6)=    0.00000

     crystal axes: (cart. coord. in units of alat)
               a(1) = (  0.0000  0.4969  0.4969 )  
               a(2) = (  0.4969  0.0000  0.4969 )  
               a(3) = (  0.4969  0.4969  0.0000 )  

     reciprocal axes: (cart. coord. in units 2 pi/alat)
               b(1) = ( -1.0063  1.0063  1.0063 )  
               b(2) = (  1.0063 -1.0063  1.0063 )  
               b(3) = (  1.0063  1.0063 -1.0063 )  


     Atoms inside the unit cell: 

   Cartesian axes

     site n.  atom      mass           positions (alat units)
        1        Pb 207.2000   tau( 1) = (    0.00000    0.00000    0.00000  )
        2        S   32.0600   tau( 2) = (    0.49688    0.49688    0.49688  )

     Computing dynamical matrix for 
                    q = (   0.5031380   0.0000000   0.0000000 )
 
      8 Sym.Ops. (no q -> -q+G )


     G cutoff = 1912.3925  (   7162 G-vectors)     FFT grid: ( 64, 64, 64)
     G cutoff =  637.4642  (   1381 G-vectors)  smooth grid: ( 36, 36, 36)
     number of k points=   588

     PseudoPot. # 1 for Pb read from file:
     /work/02599/asmiller/pseudo/gbrv/pbe_GBRV/pb_pbe_v1.uspp.F.UPF
     MD5 check sum: a5f44a0c8587cfbb5a05efeead6b9227
     Pseudo is Ultrasoft + core correction, Zval = 14.0
     Generated by new atomic code, or converted to UPF format
     Using radial grid of  899 points,  6 beta functions with: 
                l(1) =   0
                l(2) =   0
                l(3) =   1
                l(4) =   1
                l(5) =   2
                l(6) =   2
     Q(r) pseudized with  6 coefficients,  rinner =    1.000   1.000   1.000
                                                       1.000   1.000

     PseudoPot. # 2 for S  read from file:
     /work/02599/asmiller/pseudo/gbrv/pbe_GBRV/s_pbe_v1.2.uspp.F.UPF
     MD5 check sum: 18038e556f4a7980c01aa0ca135f6653
     Pseudo is Ultrasoft + core correction, Zval =  6.0
     Generated by new atomic code, or converted to UPF format
     Using radial grid of  907 points,  6 beta functions with: 
                l(1) =   0
                l(2) =   0
                l(3) =   1
                l(4) =   1
                l(5) =   2
                l(6) =   2
     Q(r) pseudized with  8 coefficients,  rinner =    1.300   1.300   1.300
                                                       1.300   1.300


     Atomic displacements:
     There are   4 irreducible representations

     Representation     1      1 modes -A_1  G_1 D_1 To be done

     Representation     2      1 modes -A_1  G_1 D_1 To be done

     Representation     3      2 modes -E    G_5 D_5 To be done

     Representation     4      2 modes -E    G_5 D_5 To be done



     Alpha used in Ewald sum =   2.8000

     negative rho (up, down):  0.156E-01 0.000E+00
     PHONON       : 24m31.14s CPU    25m 3.87s WALL



     Representation #  1 mode #   1

     Self-consistent Calculation

      iter #   1 total cpu time :  1510.2 secs   av.it.:   6.8
      thresh= 0.100E-01 alpha_mix =  0.700 |ddv_scf|^2 =  0.667E-04

      iter #   2 total cpu time :  1521.6 secs   av.it.:  13.9
      thresh= 0.817E-03 alpha_mix =  0.700 |ddv_scf|^2 =  0.722E-03

      iter #   3 total cpu time :  1530.7 secs   av.it.:  10.9
      thresh= 0.269E-02 alpha_mix =  0.700 |ddv_scf|^2 =  0.125E-06

      iter #   4 total cpu time :  1542.7 secs   av.it.:  15.3
      thresh= 0.354E-04 alpha_mix =  0.700 |ddv_scf|^2 =  0.567E-07

      iter #   5 total cpu time :  1553.4 secs   av.it.:  13.3
      thresh= 0.238E-04 alpha_mix =  0.700 |ddv_scf|^2 =  0.168E-09

      iter #   6 total cpu time :  1565.9 secs   av.it.:  16.0
      thresh= 0.130E-05 alpha_mix =  0.700 |ddv_scf|^2 =  0.122E-10

      iter #   7 total cpu time :  1578.2 secs   av.it.:  15.8
      thresh= 0.349E-06 alpha_mix =  0.700 |ddv_scf|^2 =  0.618E-11

      iter #   8 total cpu time :  1589.4 secs   av.it.:  14.0
      thresh= 0.249E-06 alpha_mix =  0.700 |ddv_scf|^2 =  0.935E-13

      iter #   9 total cpu time :  1601.3 secs   av.it.:  15.1
      thresh= 0.306E-07 alpha_mix =  0.700 |ddv_scf|^2 =  0.564E-15

      iter #  10 total cpu time :  1613.6 secs   av.it.:  15.8
      thresh= 0.238E-08 alpha_mix =  0.700 |ddv_scf|^2 =  0.422E-16

     End of self-consistent calculation

     Convergence has been achieved 


     Representation #  2 mode #   2

     Self-consistent Calculation

      iter #   1 total cpu time :  1621.9 secs   av.it.:   9.1
      thresh= 0.100E-01 alpha_mix =  0.700 |ddv_scf|^2 =  0.367E-03

      iter #   2 total cpu time :  1632.9 secs   av.it.:  14.0
      thresh= 0.192E-02 alpha_mix =  0.700 |ddv_scf|^2 =  0.421E-02

      iter #   3 total cpu time :  1642.0 secs   av.it.:  10.9
      thresh= 0.649E-02 alpha_mix =  0.700 |ddv_scf|^2 =  0.159E-05

      iter #   4 total cpu time :  1653.6 secs   av.it.:  14.7
      thresh= 0.126E-03 alpha_mix =  0.700 |ddv_scf|^2 =  0.176E-07

      iter #   5 total cpu time :  1665.7 secs   av.it.:  15.5
      thresh= 0.133E-04 alpha_mix =  0.700 |ddv_scf|^2 =  0.599E-08

      iter #   6 total cpu time :  1677.3 secs   av.it.:  14.7
      thresh= 0.774E-05 alpha_mix =  0.700 |ddv_scf|^2 =  0.186E-09

      iter #   7 total cpu time :  1688.8 secs   av.it.:  14.5
      thresh= 0.136E-05 alpha_mix =  0.700 |ddv_scf|^2 =  0.125E-11

      iter #   8 total cpu time :  1700.8 secs   av.it.:  15.3
      thresh= 0.112E-06 alpha_mix =  0.700 |ddv_scf|^2 =  0.364E-12

      iter #   9 total cpu time :  1711.9 secs   av.it.:  14.0
      thresh= 0.603E-07 alpha_mix =  0.700 |ddv_scf|^2 =  0.324E-13

      iter #  10 total cpu time :  1723.1 secs   av.it.:  14.0
      thresh= 0.180E-07 alpha_mix =  0.700 |ddv_scf|^2 =  0.637E-15

      iter #  11 total cpu time :  1735.1 secs   av.it.:  15.4
      thresh= 0.252E-08 alpha_mix =  0.700 |ddv_scf|^2 =  0.436E-15

      iter #  12 total cpu time :  1746.6 secs   av.it.:  14.4
      thresh= 0.209E-08 alpha_mix =  0.700 |ddv_scf|^2 =  0.900E-16

     End of self-consistent calculation

     Convergence has been achieved 


     Representation #  3 modes #   3  4

     Self-consistent Calculation

      iter #   1 total cpu time :  1758.5 secs   av.it.:   6.0
      thresh= 0.100E-01 alpha_mix =  0.700 |ddv_scf|^2 =  0.132E-06

      iter #   2 total cpu time :  1784.4 secs   av.it.:  17.1
      thresh= 0.363E-04 alpha_mix =  0.700 |ddv_scf|^2 =  0.449E-07

      iter #   3 total cpu time :  1809.6 secs   av.it.:  16.7
      thresh= 0.212E-04 alpha_mix =  0.700 |ddv_scf|^2 =  0.482E-09

      iter #   4 total cpu time :  1835.6 secs   av.it.:  17.2
      thresh= 0.219E-05 alpha_mix =  0.700 |ddv_scf|^2 =  0.288E-10

      iter #   5 total cpu time :  1861.5 secs   av.it.:  17.2
      thresh= 0.537E-06 alpha_mix =  0.700 |ddv_scf|^2 =  0.208E-12

      iter #   6 total cpu time :  1886.1 secs   av.it.:  16.1
      thresh= 0.456E-07 alpha_mix =  0.700 |ddv_scf|^2 =  0.824E-15

      iter #   7 total cpu time :  1912.4 secs   av.it.:  17.3
      thresh= 0.287E-08 alpha_mix =  0.700 |ddv_scf|^2 =  0.200E-16

     End of self-consistent calculation

     Convergence has been achieved 


     Representation #  4 modes #   5  6

     Self-consistent Calculation

      iter #   1 total cpu time :  1927.6 secs   av.it.:   8.3
      thresh= 0.100E-01 alpha_mix =  0.700 |ddv_scf|^2 =  0.135E-05

      iter #   2 total cpu time :  1954.2 secs   av.it.:  17.5
      thresh= 0.116E-03 alpha_mix =  0.700 |ddv_scf|^2 =  0.620E-06

      iter #   3 total cpu time :  1979.6 secs   av.it.:  16.7
      thresh= 0.788E-04 alpha_mix =  0.700 |ddv_scf|^2 =  0.754E-09

      iter #   4 total cpu time :  2006.3 secs   av.it.:  17.6
      thresh= 0.275E-05 alpha_mix =  0.700 |ddv_scf|^2 =  0.378E-10

      iter #   5 total cpu time :  2033.0 secs   av.it.:  17.6
      thresh= 0.615E-06 alpha_mix =  0.700 |ddv_scf|^2 =  0.159E-11

      iter #   6 total cpu time :  2058.4 secs   av.it.:  16.7
      thresh= 0.126E-06 alpha_mix =  0.700 |ddv_scf|^2 =  0.487E-14

      iter #   7 total cpu time :  2084.0 secs   av.it.:  16.8
      thresh= 0.698E-08 alpha_mix =  0.700 |ddv_scf|^2 =  0.319E-15

      iter #   8 total cpu time :  2109.9 secs   av.it.:  16.8
      thresh= 0.178E-08 alpha_mix =  0.700 |ddv_scf|^2 =  0.255E-17

     End of self-consistent calculation

     Convergence has been achieved 
 
     Number of q in the star =    6
     List of q in the star:
          1   0.503137974   0.000000000   0.000000000
          2   0.000000000   0.000000000   0.503137974
          3   0.000000000  -0.503137974   0.000000000
          4   0.000000000   0.000000000  -0.503137974
          5  -0.503137974   0.000000000   0.000000000
          6   0.000000000   0.503137974   0.000000000

     Diagonalizing the dynamical matrix

     q = (    0.503137974   0.000000000   0.000000000 ) 

 **************************************************************************
     omega( 1) =       0.974813 [THz] =      32.516247 [cm-1]
     omega( 2) =       0.974813 [THz] =      32.516247 [cm-1]
     omega( 3) =       2.414269 [THz] =      80.531361 [cm-1]
     omega( 4) =       3.115854 [THz] =     103.933716 [cm-1]
     omega( 5) =       3.115854 [THz] =     103.933716 [cm-1]
     omega( 6) =       6.320717 [THz] =     210.836435 [cm-1]
 **************************************************************************

     Mode symmetry, C_4v (4mm)  point group:

     omega(  1 -  2) =         32.5  [cm-1]   --> E    G_5 D_5       
     omega(  3 -  3) =         80.5  [cm-1]   --> A_1  G_1 D_1       
     omega(  4 -  5) =        103.9  [cm-1]   --> E    G_5 D_5       
     omega(  6 -  6) =        210.8  [cm-1]   --> A_1  G_1 D_1       

 **************************************************************************

     Calculation of q =   -0.2515690  -0.7547070   0.7547070
 
     Parallelization info
     --------------------
     sticks:   dense  smooth     PW     G-vecs:    dense   smooth      PW
     Min         213      70     25                 7158     1371     289
     Max         214      71     26                 7162     1385     292
     Sum        2563     847    301                85923    16529    3479
 


     bravais-lattice index     =            0
     lattice parameter (alat)  =      11.2174  a.u.
     unit-cell volume          =     346.3116 (a.u.)^3
     number of atoms/cell      =            2
     number of atomic types    =            2
     number of electrons       =        20.00
     number of Kohn-Sham states=           10
     kinetic-energy cutoff     =      50.0000  Ry
     charge density cutoff     =     600.0000  Ry
     Exchange-correlation      = PBESOL ( 1 410 8 0)
     EXX-fraction              =        0.00

     celldm(1)=  11.217414  celldm(2)=   0.000000  celldm(3)=   0.000000
     celldm(4)=   0.000000  celldm(5)=   0.000000  celldm(6)=   0.000000

     crystal axes: (cart. coord. in units of alat)
               a(1) = (   0.000000   0.496882   0.496882 )  
               a(2) = (   0.496882   0.000000   0.496882 )  
               a(3) = (   0.496882   0.496882   0.000000 )  

     reciprocal axes: (cart. coord. in units 2 pi/alat)
               b(1) = ( -1.006276  1.006276  1.006276 )  
               b(2) = (  1.006276 -1.006276  1.006276 )  
               b(3) = (  1.006276  1.006276 -1.006276 )  


     PseudoPot. # 1 for Pb read from file:
     /work/02599/asmiller/pseudo/gbrv/pbe_GBRV/pb_pbe_v1.uspp.F.UPF
     MD5 check sum: a5f44a0c8587cfbb5a05efeead6b9227
     Pseudo is Ultrasoft + core correction, Zval = 14.0
     Generated by new atomic code, or converted to UPF format
     Using radial grid of  899 points,  6 beta functions with: 
                l(1) =   0
                l(2) =   0
                l(3) =   1
                l(4) =   1
                l(5) =   2
                l(6) =   2
     Q(r) pseudized with  6 coefficients,  rinner =    1.000   1.000   1.000
                                                       1.000   1.000

     PseudoPot. # 2 for S  read from file:
     /work/02599/asmiller/pseudo/gbrv/pbe_GBRV/s_pbe_v1.2.uspp.F.UPF
     MD5 check sum: 18038e556f4a7980c01aa0ca135f6653
     Pseudo is Ultrasoft + core correction, Zval =  6.0
     Generated by new atomic code, or converted to UPF format
     Using radial grid of  907 points,  6 beta functions with: 
                l(1) =   0
                l(2) =   0
                l(3) =   1
                l(4) =   1
                l(5) =   2
                l(6) =   2
     Q(r) pseudized with  8 coefficients,  rinner =    1.300   1.300   1.300
                                                       1.300   1.300

     atomic species   valence    mass     pseudopotential
        Pb            14.00   207.20000     Pb( 1.00)
        S              6.00    32.06000     S ( 1.00)

     48 Sym. Ops., with inversion, found



   Cartesian axes

     site n.     atom                  positions (alat units)
         1           Pb  tau(   1) = (   0.0000000   0.0000000   0.0000000  )
         2           S   tau(   2) = (   0.4968816   0.4968816   0.4968816  )

     number of k points=  1872

     Number of k-points >= 100: set verbosity='high' to print them.

     Dense  grid:    85923 G-vectors     FFT dimensions: (  64,  64,  64)

     Smooth grid:    16529 G-vectors     FFT dimensions: (  36,  36,  36)

     Largest allocated arrays     est. size (Mb)     dimensions
        Kohn-Sham Wavefunctions         0.03 Mb     (    194,   10)
        NL pseudopotentials             0.11 Mb     (    194,   36)
        Each V/rho on FFT grid          0.38 Mb     (  24576)
        Each G-vector array             0.05 Mb     (   7162)
        G-vector shells                 0.00 Mb     (    624)
     Largest temporary arrays     est. size (Mb)     dimensions
        Auxiliary wavefunctions         0.12 Mb     (    194,   40)
        Each subspace H/S matrix        0.02 Mb     (  40,  40)
        Each <psi_i|beta_j> matrix      0.01 Mb     (     36,   10)

     The potential is recalculated from file :
     ./_ph0/PbS.save/charge-density.dat


     negative rho (up, down):  0.156E-01 0.000E+00
     Starting wfc are   13 atomic wfcs

     total cpu time spent up to now is      106.7 secs

     per-process dynamical memory:    67.7 Mb

     Band Structure Calculation
     Davidson diagonalization with overlap

     ethr =  5.00E-11,  avg # of iterations = 29.4

     total cpu time spent up to now is      222.0 secs

     End of band structure calculation

     Number of k-points >= 100: set verbosity='high' to print the bands.

     Writing output data file PbS.save

                                                                                

     bravais-lattice index     =            0
     lattice parameter (alat)  =      11.2174  a.u.
     unit-cell volume          =     346.3116 (a.u.)^3
     number of atoms/cell      =            2
     number of atomic types    =            2
     kinetic-energy cut-off    =      50.0000  Ry
     charge density cut-off    =     600.0000  Ry
     convergence threshold     =      1.0E-16
     beta                      =       0.7000
     number of iterations used =            4
     Exchange-correlation      = PBESOL ( 1 410 8 0)
     EXX-fraction              =        0.00


     celldm(1)=   11.21741  celldm(2)=    0.00000  celldm(3)=    0.00000
     celldm(4)=    0.00000  celldm(5)=    0.00000  celldm(6)=    0.00000

     crystal axes: (cart. coord. in units of alat)
               a(1) = (  0.0000  0.4969  0.4969 )  
               a(2) = (  0.4969  0.0000  0.4969 )  
               a(3) = (  0.4969  0.4969  0.0000 )  

     reciprocal axes: (cart. coord. in units 2 pi/alat)
               b(1) = ( -1.0063  1.0063  1.0063 )  
               b(2) = (  1.0063 -1.0063  1.0063 )  
               b(3) = (  1.0063  1.0063 -1.0063 )  


     Atoms inside the unit cell: 

   Cartesian axes

     site n.  atom      mass           positions (alat units)
        1        Pb 207.2000   tau( 1) = (    0.00000    0.00000    0.00000  )
        2        S   32.0600   tau( 2) = (    0.49688    0.49688    0.49688  )

     Computing dynamical matrix for 
                    q = (  -0.2515690  -0.7547070   0.7547070 )
 
      2 Sym.Ops. (no q -> -q+G )


     G cutoff = 1912.3925  (   7162 G-vectors)     FFT grid: ( 64, 64, 64)
     G cutoff =  637.4642  (   1385 G-vectors)  smooth grid: ( 36, 36, 36)
     number of k points=  1872

     PseudoPot. # 1 for Pb read from file:
     /work/02599/asmiller/pseudo/gbrv/pbe_GBRV/pb_pbe_v1.uspp.F.UPF
     MD5 check sum: a5f44a0c8587cfbb5a05efeead6b9227
     Pseudo is Ultrasoft + core correction, Zval = 14.0
     Generated by new atomic code, or converted to UPF format
     Using radial grid of  899 points,  6 beta functions with: 
                l(1) =   0
                l(2) =   0
                l(3) =   1
                l(4) =   1
                l(5) =   2
                l(6) =   2
     Q(r) pseudized with  6 coefficients,  rinner =    1.000   1.000   1.000
                                                       1.000   1.000

     PseudoPot. # 2 for S  read from file:
     /work/02599/asmiller/pseudo/gbrv/pbe_GBRV/s_pbe_v1.2.uspp.F.UPF
     MD5 check sum: 18038e556f4a7980c01aa0ca135f6653
     Pseudo is Ultrasoft + core correction, Zval =  6.0
     Generated by new atomic code, or converted to UPF format
     Using radial grid of  907 points,  6 beta functions with: 
                l(1) =   0
                l(2) =   0
                l(3) =   1
                l(4) =   1
                l(5) =   2
                l(6) =   2
     Q(r) pseudized with  8 coefficients,  rinner =    1.300   1.300   1.300
                                                       1.300   1.300


     Atomic displacements:
     There are   6 irreducible representations

     Representation     1      1 modes -A' To be done

     Representation     2      1 modes -A' To be done

     Representation     3      1 modes -A' To be done

     Representation     4      1 modes -A' To be done

     Representation     5      1 modes -A'' To be done

     Representation     6      1 modes -A'' To be done



     Alpha used in Ewald sum =   2.8000

     negative rho (up, down):  0.156E-01 0.000E+00
     PHONON       : 36m27.27s CPU    37m19.84s WALL



     Representation #  1 mode #   1

     Self-consistent Calculation

      iter #   1 total cpu time :  2259.4 secs   av.it.:   6.7
      thresh= 0.100E-01 alpha_mix =  0.700 |ddv_scf|^2 =  0.403E-05

      iter #   2 total cpu time :  2300.6 secs   av.it.:  16.7
      thresh= 0.201E-03 alpha_mix =  0.700 |ddv_scf|^2 =  0.123E-04

      iter #   3 total cpu time :  2337.4 secs   av.it.:  14.8
      thresh= 0.351E-03 alpha_mix =  0.700 |ddv_scf|^2 =  0.218E-06

      iter #   4 total cpu time :  2376.4 secs   av.it.:  15.7
      thresh= 0.466E-04 alpha_mix =  0.700 |ddv_scf|^2 =  0.832E-08

      iter #   5 total cpu time :  2416.4 secs   av.it.:  16.3
      thresh= 0.912E-05 alpha_mix =  0.700 |ddv_scf|^2 =  0.839E-09

      iter #   6 total cpu time :  2457.2 secs   av.it.:  16.6
      thresh= 0.290E-05 alpha_mix =  0.700 |ddv_scf|^2 =  0.357E-10

      iter #   7 total cpu time :  2498.8 secs   av.it.:  17.0
      thresh= 0.597E-06 alpha_mix =  0.700 |ddv_scf|^2 =  0.246E-11

      iter #   8 total cpu time :  2540.4 secs   av.it.:  17.0
      thresh= 0.157E-06 alpha_mix =  0.700 |ddv_scf|^2 =  0.104E-11

      iter #   9 total cpu time :  2579.8 secs   av.it.:  16.0
      thresh= 0.102E-06 alpha_mix =  0.700 |ddv_scf|^2 =  0.609E-12

      iter #  10 total cpu time :  2618.2 secs   av.it.:  15.6
      thresh= 0.780E-07 alpha_mix =  0.700 |ddv_scf|^2 =  0.463E-13

      iter #  11 total cpu time :  2657.2 secs   av.it.:  15.7
      thresh= 0.215E-07 alpha_mix =  0.700 |ddv_scf|^2 =  0.410E-14

      iter #  12 total cpu time :  2697.1 secs   av.it.:  16.2
      thresh= 0.640E-08 alpha_mix =  0.700 |ddv_scf|^2 =  0.295E-15

      iter #  13 total cpu time :  2738.3 secs   av.it.:  16.8
      thresh= 0.172E-08 alpha_mix =  0.700 |ddv_scf|^2 =  0.305E-16

     End of self-consistent calculation

     Convergence has been achieved 


     Representation #  2 mode #   2

     Self-consistent Calculation

      iter #   1 total cpu time :  2764.9 secs   av.it.:   9.5
      thresh= 0.100E-01 alpha_mix =  0.700 |ddv_scf|^2 =  0.509E-04

      iter #   2 total cpu time :  2805.5 secs   av.it.:  16.5
      thresh= 0.714E-03 alpha_mix =  0.700 |ddv_scf|^2 =  0.206E-03

      iter #   3 total cpu time :  2840.9 secs   av.it.:  14.1
      thresh= 0.144E-02 alpha_mix =  0.700 |ddv_scf|^2 =  0.937E-06

      iter #   4 total cpu time :  2880.9 secs   av.it.:  16.3
      thresh= 0.968E-04 alpha_mix =  0.700 |ddv_scf|^2 =  0.398E-07

      iter #   5 total cpu time :  2920.1 secs   av.it.:  15.9
      thresh= 0.199E-04 alpha_mix =  0.700 |ddv_scf|^2 =  0.304E-08

      iter #   6 total cpu time :  2960.3 secs   av.it.:  16.4
      thresh= 0.551E-05 alpha_mix =  0.700 |ddv_scf|^2 =  0.211E-09

      iter #   7 total cpu time :  3000.6 secs   av.it.:  16.4
      thresh= 0.145E-05 alpha_mix =  0.700 |ddv_scf|^2 =  0.285E-10

      iter #   8 total cpu time :  3041.5 secs   av.it.:  16.5
      thresh= 0.534E-06 alpha_mix =  0.700 |ddv_scf|^2 =  0.417E-11

      iter #   9 total cpu time :  3080.7 secs   av.it.:  15.9
      thresh= 0.204E-06 alpha_mix =  0.700 |ddv_scf|^2 =  0.361E-12

      iter #  10 total cpu time :  3120.2 secs   av.it.:  16.1
      thresh= 0.601E-07 alpha_mix =  0.700 |ddv_scf|^2 =  0.430E-13

      iter #  11 total cpu time :  3159.7 secs   av.it.:  16.0
      thresh= 0.207E-07 alpha_mix =  0.700 |ddv_scf|^2 =  0.404E-14

      iter #  12 total cpu time :  3199.7 secs   av.it.:  16.3
      thresh= 0.636E-08 alpha_mix =  0.700 |ddv_scf|^2 =  0.135E-14

      iter #  13 total cpu time :  3239.6 secs   av.it.:  16.2
      thresh= 0.367E-08 alpha_mix =  0.700 |ddv_scf|^2 =  0.257E-15

      iter #  14 total cpu time :  3278.9 secs   av.it.:  15.9
      thresh= 0.160E-08 alpha_mix =  0.700 |ddv_scf|^2 =  0.641E-16

     End of self-consistent calculation

     Convergence has been achieved 


     Representation #  3 mode #   3

     Self-consistent Calculation

      iter #   1 total cpu time :  3299.1 secs   av.it.:   6.7
      thresh= 0.100E-01 alpha_mix =  0.700 |ddv_scf|^2 =  0.611E-05

      iter #   2 total cpu time :  3339.8 secs   av.it.:  16.5
      thresh= 0.247E-03 alpha_mix =  0.700 |ddv_scf|^2 =  0.177E-04

      iter #   3 total cpu time :  3376.4 secs   av.it.:  14.6
      thresh= 0.421E-03 alpha_mix =  0.700 |ddv_scf|^2 =  0.305E-06

      iter #   4 total cpu time :  3414.7 secs   av.it.:  15.5
      thresh= 0.553E-04 alpha_mix =  0.700 |ddv_scf|^2 =  0.679E-08

      iter #   5 total cpu time :  3455.2 secs   av.it.:  16.5
      thresh= 0.824E-05 alpha_mix =  0.700 |ddv_scf|^2 =  0.637E-09

      iter #   6 total cpu time :  3496.1 secs   av.it.:  16.7
      thresh= 0.252E-05 alpha_mix =  0.700 |ddv_scf|^2 =  0.303E-10

      iter #   7 total cpu time :  3538.0 secs   av.it.:  17.1
      thresh= 0.550E-06 alpha_mix =  0.700 |ddv_scf|^2 =  0.228E-11

      iter #   8 total cpu time :  3579.7 secs   av.it.:  17.0
      thresh= 0.151E-06 alpha_mix =  0.700 |ddv_scf|^2 =  0.459E-12

      iter #   9 total cpu time :  3619.9 secs   av.it.:  16.3
      thresh= 0.677E-07 alpha_mix =  0.700 |ddv_scf|^2 =  0.343E-12

      iter #  10 total cpu time :  3658.4 secs   av.it.:  15.6
      thresh= 0.585E-07 alpha_mix =  0.700 |ddv_scf|^2 =  0.237E-13

      iter #  11 total cpu time :  3696.6 secs   av.it.:  15.5
      thresh= 0.154E-07 alpha_mix =  0.700 |ddv_scf|^2 =  0.924E-15

      iter #  12 total cpu time :  3737.1 secs   av.it.:  16.5
      thresh= 0.304E-08 alpha_mix =  0.700 |ddv_scf|^2 =  0.121E-15

      iter #  13 total cpu time :  3778.4 secs   av.it.:  16.8
      thresh= 0.110E-08 alpha_mix =  0.700 |ddv_scf|^2 =  0.118E-16

     End of self-consistent calculation

     Convergence has been achieved 


     Representation #  4 mode #   4

     Self-consistent Calculation

      iter #   1 total cpu time :  3804.8 secs   av.it.:   9.5
      thresh= 0.100E-01 alpha_mix =  0.700 |ddv_scf|^2 =  0.192E-04

      iter #   2 total cpu time :  3846.6 secs   av.it.:  17.0
      thresh= 0.438E-03 alpha_mix =  0.700 |ddv_scf|^2 =  0.519E-04

      iter #   3 total cpu time :  3884.4 secs   av.it.:  15.2
      thresh= 0.721E-03 alpha_mix =  0.700 |ddv_scf|^2 =  0.177E-05

      iter #   4 total cpu time :  3923.4 secs   av.it.:  15.6
      thresh= 0.133E-03 alpha_mix =  0.700 |ddv_scf|^2 =  0.536E-07

      iter #   5 total cpu time :  3961.6 secs   av.it.:  15.4
      thresh= 0.232E-04 alpha_mix =  0.700 |ddv_scf|^2 =  0.178E-08

      iter #   6 total cpu time :  4002.7 secs   av.it.:  16.8
      thresh= 0.422E-05 alpha_mix =  0.700 |ddv_scf|^2 =  0.156E-09

      iter #   7 total cpu time :  4043.6 secs   av.it.:  16.6
      thresh= 0.125E-05 alpha_mix =  0.700 |ddv_scf|^2 =  0.237E-10

      iter #   8 total cpu time :  4084.7 secs   av.it.:  16.8
      thresh= 0.487E-06 alpha_mix =  0.700 |ddv_scf|^2 =  0.222E-11

      iter #   9 total cpu time :  4125.0 secs   av.it.:  16.4
      thresh= 0.149E-06 alpha_mix =  0.700 |ddv_scf|^2 =  0.358E-12

      iter #  10 total cpu time :  4164.2 secs   av.it.:  15.8
      thresh= 0.598E-07 alpha_mix =  0.700 |ddv_scf|^2 =  0.844E-13

      iter #  11 total cpu time :  4202.4 secs   av.it.:  15.4
      thresh= 0.291E-07 alpha_mix =  0.700 |ddv_scf|^2 =  0.583E-14

      iter #  12 total cpu time :  4242.7 secs   av.it.:  16.4
      thresh= 0.763E-08 alpha_mix =  0.700 |ddv_scf|^2 =  0.823E-15

      iter #  13 total cpu time :  4283.4 secs   av.it.:  16.6
      thresh= 0.287E-08 alpha_mix =  0.700 |ddv_scf|^2 =  0.312E-15

      iter #  14 total cpu time :  4322.6 secs   av.it.:  16.0
      thresh= 0.177E-08 alpha_mix =  0.700 |ddv_scf|^2 =  0.539E-16

     End of self-consistent calculation

     Convergence has been achieved 


     Representation #  5 mode #   5

     Self-consistent Calculation

      iter #   1 total cpu time :  4347.3 secs   av.it.:   8.7
      thresh= 0.100E-01 alpha_mix =  0.700 |ddv_scf|^2 =  0.574E-05

      iter #   2 total cpu time :  4387.9 secs   av.it.:  16.1
      thresh= 0.240E-03 alpha_mix =  0.700 |ddv_scf|^2 =  0.272E-05

      iter #   3 total cpu time :  4426.8 secs   av.it.:  15.4
      thresh= 0.165E-03 alpha_mix =  0.700 |ddv_scf|^2 =  0.352E-08

      iter #   4 total cpu time :  4467.9 secs   av.it.:  16.4
      thresh= 0.593E-05 alpha_mix =  0.700 |ddv_scf|^2 =  0.178E-09

      iter #   5 total cpu time :  4509.4 secs   av.it.:  16.5
      thresh= 0.133E-05 alpha_mix =  0.700 |ddv_scf|^2 =  0.677E-11

      iter #   6 total cpu time :  4548.7 secs   av.it.:  15.6
      thresh= 0.260E-06 alpha_mix =  0.700 |ddv_scf|^2 =  0.235E-13

      iter #   7 total cpu time :  4588.9 secs   av.it.:  16.0
      thresh= 0.153E-07 alpha_mix =  0.700 |ddv_scf|^2 =  0.128E-14

      iter #   8 total cpu time :  4628.7 secs   av.it.:  15.8
      thresh= 0.358E-08 alpha_mix =  0.700 |ddv_scf|^2 =  0.147E-16

     End of self-consistent calculation

     Convergence has been achieved 


     Representation #  6 mode #   6

     Self-consistent Calculation

      iter #   1 total cpu time :  4647.6 secs   av.it.:   6.0
      thresh= 0.100E-01 alpha_mix =  0.700 |ddv_scf|^2 =  0.577E-06

      iter #   2 total cpu time :  4687.8 secs   av.it.:  16.0
      thresh= 0.760E-04 alpha_mix =  0.700 |ddv_scf|^2 =  0.197E-06

      iter #   3 total cpu time :  4726.9 secs   av.it.:  15.5
      thresh= 0.444E-04 alpha_mix =  0.700 |ddv_scf|^2 =  0.212E-08

      iter #   4 total cpu time :  4767.2 secs   av.it.:  16.0
      thresh= 0.460E-05 alpha_mix =  0.700 |ddv_scf|^2 =  0.142E-09

      iter #   5 total cpu time :  4807.7 secs   av.it.:  16.0
      thresh= 0.119E-05 alpha_mix =  0.700 |ddv_scf|^2 =  0.104E-11

      iter #   6 total cpu time :  4846.3 secs   av.it.:  15.3
      thresh= 0.102E-06 alpha_mix =  0.700 |ddv_scf|^2 =  0.391E-14

      iter #   7 total cpu time :  4887.5 secs   av.it.:  16.4
      thresh= 0.626E-08 alpha_mix =  0.700 |ddv_scf|^2 =  0.927E-16

     End of self-consistent calculation

     Convergence has been achieved 
 
     Number of q in the star =   24
     List of q in the star:
          1  -0.251568987  -0.754706961   0.754706961
          2  -0.251568987  -0.754706961  -0.754706961
          3  -0.251568987   0.754706961   0.754706961
          4  -0.251568987   0.754706961  -0.754706961
          5   0.754706961   0.754706961  -0.251568987
          6   0.754706961   0.251568987  -0.754706961
          7  -0.754706961  -0.754706961   0.251568987
          8  -0.754706961   0.754706961   0.251568987
          9   0.251568987  -0.754706961  -0.754706961
         10   0.251568987   0.754706961   0.754706961
         11  -0.754706961   0.754706961  -0.251568987
         12   0.754706961   0.754706961   0.251568987
         13   0.754706961  -0.754706961  -0.251568987
         14   0.754706961  -0.251568987  -0.754706961
         15   0.754706961   0.251568987   0.754706961
         16  -0.754706961   0.251568987  -0.754706961
         17  -0.754706961   0.251568987   0.754706961
         18  -0.754706961  -0.251568987   0.754706961
         19   0.754706961  -0.251568987   0.754706961
         20   0.251568987  -0.754706961   0.754706961
         21  -0.754706961  -0.251568987  -0.754706961
         22   0.251568987   0.754706961  -0.754706961
         23   0.754706961  -0.754706961   0.251568987
         24  -0.754706961  -0.754706961  -0.251568987

     Diagonalizing the dynamical matrix

     q = (   -0.251568987  -0.754706961   0.754706961 ) 

 **************************************************************************
     omega( 1) =       1.422384 [THz] =      47.445629 [cm-1]
     omega( 2) =       1.578066 [THz] =      52.638616 [cm-1]
     omega( 3) =       2.461216 [THz] =      82.097341 [cm-1]
     omega( 4) =       4.834413 [THz] =     161.258669 [cm-1]
     omega( 5) =       4.853455 [THz] =     161.893834 [cm-1]
     omega( 6) =       6.005432 [THz] =     200.319654 [cm-1]
 **************************************************************************

     Mode symmetry, C_s (m)     point group:

     omega(  1 -  1) =         47.4  [cm-1]   --> A''                
     omega(  2 -  2) =         52.6  [cm-1]   --> A'                 
     omega(  3 -  3) =         82.1  [cm-1]   --> A'                 
     omega(  4 -  4) =        161.3  [cm-1]   --> A'                 
     omega(  5 -  5) =        161.9  [cm-1]   --> A''                
     omega(  6 -  6) =        200.3  [cm-1]   --> A'                 

 **************************************************************************

     Calculation of q =    0.0000000  -0.5031380   0.5031380
 
     Parallelization info
     --------------------
     sticks:   dense  smooth     PW     G-vecs:    dense   smooth      PW
     Min         213      70     24                 7158     1366     267
     Max         214      71     26                 7162     1390     269
     Sum        2563     847    295                85923    16529    3215
 


     bravais-lattice index     =            0
     lattice parameter (alat)  =      11.2174  a.u.
     unit-cell volume          =     346.3116 (a.u.)^3
     number of atoms/cell      =            2
     number of atomic types    =            2
     number of electrons       =        20.00
     number of Kohn-Sham states=           10
     kinetic-energy cutoff     =      50.0000  Ry
     charge density cutoff     =     600.0000  Ry
     Exchange-correlation      = PBESOL ( 1 410 8 0)
     EXX-fraction              =        0.00

     celldm(1)=  11.217414  celldm(2)=   0.000000  celldm(3)=   0.000000
     celldm(4)=   0.000000  celldm(5)=   0.000000  celldm(6)=   0.000000

     crystal axes: (cart. coord. in units of alat)
[...]
     Min         213      70     25                 7158     1370     281
     Max         214      71     26                 7162     1383     283
     Sum        2563     847    301                85923    16529    3383
 


     bravais-lattice index     =            0
     lattice parameter (alat)  =      11.2174  a.u.
     unit-cell volume          =     346.3116 (a.u.)^3
     number of atoms/cell      =            2
     number of atomic types    =            2
     number of electrons       =        20.00
     number of Kohn-Sham states=           10
     kinetic-energy cutoff     =      50.0000  Ry
     charge density cutoff     =     600.0000  Ry
     Exchange-correlation      = PBESOL ( 1 410 8 0)
     EXX-fraction              =        0.00

     celldm(1)=  11.217414  celldm(2)=   0.000000  celldm(3)=   0.000000
     celldm(4)=   0.000000  celldm(5)=   0.000000  celldm(6)=   0.000000

     crystal axes: (cart. coord. in units of alat)
               a(1) = (   0.000000   0.496882   0.496882 )  
               a(2) = (   0.496882   0.000000   0.496882 )  
               a(3) = (   0.496882   0.496882   0.000000 )  

     reciprocal axes: (cart. coord. in units 2 pi/alat)
               b(1) = ( -1.006276  1.006276  1.006276 )  
               b(2) = (  1.006276 -1.006276  1.006276 )  
               b(3) = (  1.006276  1.006276 -1.006276 )  


     PseudoPot. # 1 for Pb read from file:
     /work/02599/asmiller/pseudo/gbrv/pbe_GBRV/pb_pbe_v1.uspp.F.UPF
     MD5 check sum: a5f44a0c8587cfbb5a05efeead6b9227
     Pseudo is Ultrasoft + core correction, Zval = 14.0
     Generated by new atomic code, or converted to UPF format
     Using radial grid of  899 points,  6 beta functions with: 
                l(1) =   0
                l(2) =   0
                l(3) =   1
                l(4) =   1
                l(5) =   2
                l(6) =   2
     Q(r) pseudized with  6 coefficients,  rinner =    1.000   1.000   1.000
                                                       1.000   1.000

     PseudoPot. # 2 for S  read from file:
     /work/02599/asmiller/pseudo/gbrv/pbe_GBRV/s_pbe_v1.2.uspp.F.UPF
     MD5 check sum: 18038e556f4a7980c01aa0ca135f6653
     Pseudo is Ultrasoft + core correction, Zval =  6.0
     Generated by new atomic code, or converted to UPF format
     Using radial grid of  907 points,  6 beta functions with: 
                l(1) =   0
                l(2) =   0
                l(3) =   1
                l(4) =   1
                l(5) =   2
                l(6) =   2
     Q(r) pseudized with  8 coefficients,  rinner =    1.300   1.300   1.300
                                                       1.300   1.300

     atomic species   valence    mass     pseudopotential
        Pb            14.00   207.20000     Pb( 1.00)
        S              6.00    32.06000     S ( 1.00)

     48 Sym. Ops., with inversion, found



   Cartesian axes

     site n.     atom                  positions (alat units)
         1           Pb  tau(   1) = (   0.0000000   0.0000000   0.0000000  )
         2           S   tau(   2) = (   0.4968816   0.4968816   0.4968816  )

     number of k points=   524

     Number of k-points >= 100: set verbosity='high' to print them.

     Dense  grid:    85923 G-vectors     FFT dimensions: (  64,  64,  64)

     Smooth grid:    16529 G-vectors     FFT dimensions: (  36,  36,  36)

     Largest allocated arrays     est. size (Mb)     dimensions
        Kohn-Sham Wavefunctions         0.03 Mb     (    191,   10)
        NL pseudopotentials             0.10 Mb     (    191,   36)
        Each V/rho on FFT grid          0.38 Mb     (  24576)
        Each G-vector array             0.05 Mb     (   7162)
        G-vector shells                 0.00 Mb     (    619)
     Largest temporary arrays     est. size (Mb)     dimensions
        Auxiliary wavefunctions         0.12 Mb     (    191,   40)
        Each subspace H/S matrix        0.02 Mb     (  40,  40)
        Each <psi_i|beta_j> matrix      0.01 Mb     (     36,   10)

     The potential is recalculated from file :
     ./_ph0/PbS.save/charge-density.dat


     negative rho (up, down):  0.156E-01 0.000E+00
     Starting wfc are   13 atomic wfcs

     total cpu time spent up to now is      308.4 secs

     per-process dynamical memory:    78.8 Mb

     Band Structure Calculation
     Davidson diagonalization with overlap

     ethr =  5.00E-11,  avg # of iterations = 28.7

     total cpu time spent up to now is      339.4 secs

     End of band structure calculation

     Number of k-points >= 100: set verbosity='high' to print the bands.

     Writing output data file PbS.save

                                                                                

     bravais-lattice index     =            0
     lattice parameter (alat)  =      11.2174  a.u.
     unit-cell volume          =     346.3116 (a.u.)^3
     number of atoms/cell      =            2
     number of atomic types    =            2
     kinetic-energy cut-off    =      50.0000  Ry
     charge density cut-off    =     600.0000  Ry
     convergence threshold     =      1.0E-16
     beta                      =       0.7000
     number of iterations used =            4
     Exchange-correlation      = PBESOL ( 1 410 8 0)
     EXX-fraction              =        0.00


     celldm(1)=   11.21741  celldm(2)=    0.00000  celldm(3)=    0.00000
     celldm(4)=    0.00000  celldm(5)=    0.00000  celldm(6)=    0.00000

     crystal axes: (cart. coord. in units of alat)
               a(1) = (  0.0000  0.4969  0.4969 )  
               a(2) = (  0.4969  0.0000  0.4969 )  
               a(3) = (  0.4969  0.4969  0.0000 )  

     reciprocal axes: (cart. coord. in units 2 pi/alat)
               b(1) = ( -1.0063  1.0063  1.0063 )  
               b(2) = (  1.0063 -1.0063  1.0063 )  
               b(3) = (  1.0063  1.0063 -1.0063 )  


     Atoms inside the unit cell: 

   Cartesian axes

     site n.  atom      mass           positions (alat units)
        1        Pb 207.2000   tau( 1) = (    0.00000    0.00000    0.00000  )
        2        S   32.0600   tau( 2) = (    0.49688    0.49688    0.49688  )

     Computing dynamical matrix for 
                    q = (  -1.0062759   0.5031380   0.0000000 )
 
      8 Sym.Ops. (no q -> -q+G )


     G cutoff = 1912.3925  (   7162 G-vectors)     FFT grid: ( 64, 64, 64)
     G cutoff =  637.4642  (   1370 G-vectors)  smooth grid: ( 36, 36, 36)
     number of k points=   524

     PseudoPot. # 1 for Pb read from file:
     /work/02599/asmiller/pseudo/gbrv/pbe_GBRV/pb_pbe_v1.uspp.F.UPF
     MD5 check sum: a5f44a0c8587cfbb5a05efeead6b9227
     Pseudo is Ultrasoft + core correction, Zval = 14.0
     Generated by new atomic code, or converted to UPF format
     Using radial grid of  899 points,  6 beta functions with: 
                l(1) =   0
                l(2) =   0
                l(3) =   1
                l(4) =   1
                l(5) =   2
                l(6) =   2
     Q(r) pseudized with  6 coefficients,  rinner =    1.000   1.000   1.000
                                                       1.000   1.000

     PseudoPot. # 2 for S  read from file:
     /work/02599/asmiller/pseudo/gbrv/pbe_GBRV/s_pbe_v1.2.uspp.F.UPF
     MD5 check sum: 18038e556f4a7980c01aa0ca135f6653
     Pseudo is Ultrasoft + core correction, Zval =  6.0
     Generated by new atomic code, or converted to UPF format
     Using radial grid of  907 points,  6 beta functions with: 
                l(1) =   0
                l(2) =   0
                l(3) =   1
                l(4) =   1
                l(5) =   2
                l(6) =   2
     Q(r) pseudized with  8 coefficients,  rinner =    1.300   1.300   1.300
                                                       1.300   1.300


     Atomic displacements:
     There are   4 irreducible representations

     Representation     1      1 modes -A_1  X_1  W_1 To be done

     Representation     2      1 modes -B_2  X_3  W_2 To be done

     Representation     3      2 modes -E    X_5  W_3 To be done

     Representation     4      2 modes -E    X_5  W_3 To be done



     Alpha used in Ewald sum =   2.8000

     negative rho (up, down):  0.156E-01 0.000E+00
     PHONON       :     1h44m CPU        1h46m WALL



     Representation #  1 mode #   1

     Self-consistent Calculation

      iter #   1 total cpu time :  6394.5 secs   av.it.:   4.9
      thresh= 0.100E-01 alpha_mix =  0.700 |ddv_scf|^2 =  0.132E-05

      iter #   2 total cpu time :  6405.0 secs   av.it.:  14.8
      thresh= 0.115E-03 alpha_mix =  0.700 |ddv_scf|^2 =  0.918E-06

      iter #   3 total cpu time :  6415.1 secs   av.it.:  14.2
      thresh= 0.958E-04 alpha_mix =  0.700 |ddv_scf|^2 =  0.154E-08

      iter #   4 total cpu time :  6426.5 secs   av.it.:  16.1
      thresh= 0.392E-05 alpha_mix =  0.700 |ddv_scf|^2 =  0.161E-09

      iter #   5 total cpu time :  6437.5 secs   av.it.:  15.7
      thresh= 0.127E-05 alpha_mix =  0.700 |ddv_scf|^2 =  0.633E-12

      iter #   6 total cpu time :  6448.5 secs   av.it.:  15.7
      thresh= 0.796E-07 alpha_mix =  0.700 |ddv_scf|^2 =  0.105E-13

      iter #   7 total cpu time :  6459.6 secs   av.it.:  15.8
      thresh= 0.102E-07 alpha_mix =  0.700 |ddv_scf|^2 =  0.871E-16

     End of self-consistent calculation

     Convergence has been achieved 


     Representation #  2 mode #   2

     Self-consistent Calculation

      iter #   1 total cpu time :  6466.8 secs   av.it.:   8.5
      thresh= 0.100E-01 alpha_mix =  0.700 |ddv_scf|^2 =  0.115E-04

      iter #   2 total cpu time :  6477.8 secs   av.it.:  15.8
      thresh= 0.339E-03 alpha_mix =  0.700 |ddv_scf|^2 =  0.193E-04

      iter #   3 total cpu time :  6488.0 secs   av.it.:  14.2
      thresh= 0.440E-03 alpha_mix =  0.700 |ddv_scf|^2 =  0.398E-06

      iter #   4 total cpu time :  6498.1 secs   av.it.:  14.1
      thresh= 0.631E-04 alpha_mix =  0.700 |ddv_scf|^2 =  0.147E-08

      iter #   5 total cpu time :  6509.1 secs   av.it.:  15.7
      thresh= 0.384E-05 alpha_mix =  0.700 |ddv_scf|^2 =  0.419E-10

      iter #   6 total cpu time :  6519.6 secs   av.it.:  14.7
      thresh= 0.647E-06 alpha_mix =  0.700 |ddv_scf|^2 =  0.213E-12

      iter #   7 total cpu time :  6530.6 secs   av.it.:  15.6
      thresh= 0.461E-07 alpha_mix =  0.700 |ddv_scf|^2 =  0.737E-14

      iter #   8 total cpu time :  6541.2 secs   av.it.:  15.1
      thresh= 0.859E-08 alpha_mix =  0.700 |ddv_scf|^2 =  0.747E-16

     End of self-consistent calculation

     Convergence has been achieved 


     Representation #  3 modes #   3  4

     Self-consistent Calculation

      iter #   1 total cpu time :  6555.7 secs   av.it.:   9.0
      thresh= 0.100E-01 alpha_mix =  0.700 |ddv_scf|^2 =  0.449E-05

      iter #   2 total cpu time :  6579.7 secs   av.it.:  17.5
      thresh= 0.212E-03 alpha_mix =  0.700 |ddv_scf|^2 =  0.576E-05

      iter #   3 total cpu time :  6602.5 secs   av.it.:  16.3
      thresh= 0.240E-03 alpha_mix =  0.700 |ddv_scf|^2 =  0.163E-08

      iter #   4 total cpu time :  6627.1 secs   av.it.:  17.7
      thresh= 0.404E-05 alpha_mix =  0.700 |ddv_scf|^2 =  0.663E-10

      iter #   5 total cpu time :  6651.3 secs   av.it.:  17.6
      thresh= 0.814E-06 alpha_mix =  0.700 |ddv_scf|^2 =  0.288E-11

      iter #   6 total cpu time :  6673.8 secs   av.it.:  16.1
      thresh= 0.170E-06 alpha_mix =  0.700 |ddv_scf|^2 =  0.235E-13

      iter #   7 total cpu time :  6697.5 secs   av.it.:  17.3
      thresh= 0.153E-07 alpha_mix =  0.700 |ddv_scf|^2 =  0.469E-15

      iter #   8 total cpu time :  6720.9 secs   av.it.:  16.9
      thresh= 0.217E-08 alpha_mix =  0.700 |ddv_scf|^2 =  0.334E-17

     End of self-consistent calculation

     Convergence has been achieved 


     Representation #  4 modes #   5  6

     Self-consistent Calculation

      iter #   1 total cpu time :  6732.8 secs   av.it.:   6.8
      thresh= 0.100E-01 alpha_mix =  0.700 |ddv_scf|^2 =  0.592E-06

      iter #   2 total cpu time :  6756.6 secs   av.it.:  17.3
      thresh= 0.769E-04 alpha_mix =  0.700 |ddv_scf|^2 =  0.661E-06

      iter #   3 total cpu time :  6779.3 secs   av.it.:  16.4
      thresh= 0.813E-04 alpha_mix =  0.700 |ddv_scf|^2 =  0.819E-09

      iter #   4 total cpu time :  6802.9 secs   av.it.:  17.2
      thresh= 0.286E-05 alpha_mix =  0.700 |ddv_scf|^2 =  0.406E-10

      iter #   5 total cpu time :  6826.4 secs   av.it.:  17.0
      thresh= 0.637E-06 alpha_mix =  0.700 |ddv_scf|^2 =  0.841E-12

      iter #   6 total cpu time :  6848.3 secs   av.it.:  15.6
      thresh= 0.917E-07 alpha_mix =  0.700 |ddv_scf|^2 =  0.292E-14

      iter #   7 total cpu time :  6871.9 secs   av.it.:  17.1
      thresh= 0.540E-08 alpha_mix =  0.700 |ddv_scf|^2 =  0.384E-16

     End of self-consistent calculation

     Convergence has been achieved 
 
     Number of q in the star =    6
     List of q in the star:
          1  -1.006275948   0.503137974   0.000000000
          2   1.006275948   0.000000000   0.503137974
          3   1.006275948   0.000000000  -0.503137974
          4   1.006275948  -0.503137974   0.000000000
          5   0.503137974   0.000000000  -1.006275948
          6  -0.503137974   0.000000000   1.006275948

     Diagonalizing the dynamical matrix

     q = (   -1.006275948   0.503137974   0.000000000 ) 

 **************************************************************************
     omega( 1) =       1.620632 [THz] =      54.058448 [cm-1]
     omega( 2) =       1.620632 [THz] =      54.058448 [cm-1]
     omega( 3) =       2.157160 [THz] =      71.955108 [cm-1]
     omega( 4) =       3.459646 [THz] =     115.401378 [cm-1]
     omega( 5) =       3.459646 [THz] =     115.401378 [cm-1]
     omega( 6) =       6.046518 [THz] =     201.690126 [cm-1]
 **************************************************************************

     Mode symmetry, D_2d (-42m) point group:

     omega(  1 -  2) =         54.1  [cm-1]   --> E    X_5  W_3      
     omega(  3 -  3) =         72.0  [cm-1]   --> B_2  X_3  W_2      
     omega(  4 -  5) =        115.4  [cm-1]   --> E    X_5  W_3      
     omega(  6 -  6) =        201.7  [cm-1]   --> A_1  X_1  W_1      

 **************************************************************************
 
     init_run     :      3.22s CPU      3.66s WALL (       7 calls)
     electrons    :    305.04s CPU    328.21s WALL (       7 calls)

     Called by init_run:
     wfcinit      :      0.00s CPU      0.00s WALL (       7 calls)
     potinit      :      0.40s CPU      0.45s WALL (       7 calls)

     Called by electrons:
     c_bands      :    305.02s CPU    328.19s WALL (       7 calls)
     v_of_rho     :      0.20s CPU      0.22s WALL (       8 calls)
     newd         :      0.46s CPU      0.46s WALL (       8 calls)

     Called by c_bands:
     init_us_2    :      8.07s CPU      8.08s WALL (   84555 calls)
     cegterg      :    263.15s CPU    265.36s WALL (    5051 calls)

     Called by *egterg:
     h_psi        :    214.38s CPU    216.65s WALL (   84649 calls)
     s_psi        :    327.32s CPU    332.59s WALL ( 3441251 calls)
     g_psi        :      1.70s CPU      1.86s WALL (   76878 calls)
     cdiaghg      :     29.23s CPU     29.40s WALL (   79598 calls)

     Called by h_psi:
     add_vuspsi   :    172.19s CPU    173.00s WALL ( 1722829 calls)

     General routines
     calbec       :    541.46s CPU    531.95s WALL ( 3593141 calls)
     fft          :     12.26s CPU     13.07s WALL (    8107 calls)
     ffts         :      2.16s CPU      2.51s WALL (    9772 calls)
     fftw         :   3940.11s CPU   3978.57s WALL (29011928 calls)
     interpolate  :      0.02s CPU      0.03s WALL (      15 calls)
     davcio       :      2.09s CPU     21.47s WALL (  396678 calls)
 
     Parallel routines
     fft_scatter  :   2071.99s CPU   2085.76s WALL (29029807 calls)
 
     PHONON       :     1h52m CPU        1h54m WALL

     INITIALIZATION: 
     phq_setup    :      0.46s CPU      0.60s WALL (       8 calls)
     phq_init     :     40.99s CPU     41.81s WALL (       8 calls)
 
     phq_init     :     40.99s CPU     41.81s WALL (       8 calls)
     set_drhoc    :      5.93s CPU      5.93s WALL (      24 calls)
     init_vloc    :      0.07s CPU      0.06s WALL (       8 calls)
     init_us_1    :      1.56s CPU      1.59s WALL (       8 calls)
     newd         :      0.46s CPU      0.46s WALL (       8 calls)
     dvanqq       :      5.63s CPU      5.65s WALL (       8 calls)
     drho         :     23.26s CPU     23.72s WALL (       8 calls)
 
     DYNAMICAL MATRIX:
     dynmat0      :      7.46s CPU      7.67s WALL (       8 calls)
     phqscf       :   6299.92s CPU   6396.77s WALL (       8 calls)
     dynmatrix    :      0.03s CPU      0.21s WALL (       8 calls)
 
     phqscf       :   6299.92s CPU   6396.77s WALL (       8 calls)
     solve_linter :   6290.26s CPU   6385.74s WALL (      34 calls)
     drhodv       :      7.70s CPU      7.94s WALL (      34 calls)
 
     dynmat0      :      7.46s CPU      7.67s WALL (       8 calls)
     dynmat_us    :      3.24s CPU      3.29s WALL (       8 calls)
     d2ionq       :      0.03s CPU      0.02s WALL (       8 calls)
     dynmatcc     :      4.11s CPU      4.14s WALL (       8 calls)
 
     dynmat_us    :      3.24s CPU      3.29s WALL (       8 calls)
     addusdynmat  :      0.00s CPU      0.00s WALL (       8 calls)
 
     phqscf       :   6299.92s CPU   6396.77s WALL (       8 calls)
     solve_linter :   6290.26s CPU   6385.74s WALL (      34 calls)
 
     solve_linter :   6290.26s CPU   6385.74s WALL (      34 calls)
     dvqpsi_us    :     32.61s CPU     33.06s WALL (    8592 calls)
     ortho        :     34.04s CPU     34.93s WALL (   80134 calls)
     cgsolve      :   5582.35s CPU   5643.45s WALL (   80134 calls)
     incdrhoscf   :    253.25s CPU    256.93s WALL (   80134 calls)
     addusddens   :     26.93s CPU     27.13s WALL (     341 calls)
     vpsifft      :    190.18s CPU    191.77s WALL (   70894 calls)
     dv_of_drho   :     11.87s CPU     12.42s WALL (     434 calls)
     mix_pot      :      2.99s CPU      8.24s WALL (     314 calls)
     psymdvscf    :     42.24s CPU     43.89s WALL (     307 calls)
     newdq        :     29.39s CPU     29.48s WALL (     314 calls)
     adddvscf     :     13.18s CPU     13.10s WALL (   71542 calls)
     drhodvus     :      0.07s CPU      0.10s WALL (      34 calls)
 
     dvqpsi_us    :     32.61s CPU     33.06s WALL (    8592 calls)
     dvqpsi_us_on :      7.42s CPU      7.65s WALL (    8592 calls)
 
     cgsolve      :   5582.35s CPU   5643.45s WALL (   80134 calls)
     ch_psi       :   5435.11s CPU   5497.14s WALL ( 1638180 calls)
 
     ch_psi       :   5435.11s CPU   5497.14s WALL ( 1638180 calls)
     h_psiq       :   4860.63s CPU   4918.76s WALL ( 1638180 calls)
     last         :    563.68s CPU    565.32s WALL ( 1638180 calls)
 
     h_psiq       :   4860.63s CPU   4918.76s WALL ( 1638180 calls)
     firstfft     :   2631.62s CPU   2665.14s WALL (12325662 calls)
     secondfft    :   1562.62s CPU   1579.62s WALL (12325662 calls)
     add_vuspsi   :    172.19s CPU    173.00s WALL ( 1722829 calls)
 
     incdrhoscf   :    253.25s CPU    256.93s WALL (   80134 calls)
     addusdbec    :     18.26s CPU     18.32s WALL (   88510 calls)
 
     drhodvus     :      0.07s CPU      0.10s WALL (      34 calls)
 
      General routines
     calbec       :    541.46s CPU    531.95s WALL ( 3593141 calls)
     fft          :     12.26s CPU     13.07s WALL (    8107 calls)
     ffts         :      2.16s CPU      2.51s WALL (    9772 calls)
     fftw         :   3940.11s CPU   3978.57s WALL (29011928 calls)
     cinterpolate :      1.84s CPU      1.96s WALL (     913 calls)
     davcio       :      2.09s CPU     21.47s WALL (  396678 calls)
     write_rec    :      1.15s CPU      6.04s WALL (     348 calls)
 
TACC: Shutting down parallel environment.
TACC: Shutdown complete. Exiting.
