TACC: Starting up job 2117628
TACC: Setting up parallel environment for MVAPICH ssh-based mpirun.
TACC: Setup complete. Running job script.
TACC: starting parallel tasks...

     Program PWSCF v.5.0.1 starts on 17Aug2014 at 23:24:21 

     This program is part of the open-source Quantum ESPRESSO suite
     for quantum simulation of materials; please cite
         "P. Giannozzi et al., J. Phys.:Condens. Matter 21 395502 (2009);
          URL http://www.quantum-espresso.org", 
     in publications or presentations arising from this work. More details at
     http://www.quantum-espresso.org/quote.php

     Parallel version (MPI), running on    24 processors
     K-points division:     npool     =    2
     R & G space division:  proc/pool =   12

     Current dimensions of program PWSCF are:
     Max number of different atomic species (ntypx) = 10
     Max number of k-points (npk) =  40000
     Max angular momentum in pseudopotentials (lmaxx) =  3
     Waiting for input...
     Reading input from standard input
Warning: card &IONS ignored
Warning: card ION_DYNAMICS='BFGS', ignored
Warning: card / ignored
Warning: card &CELL ignored
Warning: card CELL_DYNAMICS='BFGS', ignored
Warning: card PRESS=0.D0 ignored
Warning: card / ignored

     IMPORTANT: XC functional enforced from input :
     Exchange-correlation      = PBESOL ( 1 410 8 0)
     EXX-fraction              =        0.00
     Any further DFT definition will be discarded
     Please, verify this is what you really want


     Subspace diagonalization in iterative solution of the eigenvalue problem:
     a serial algorithm will be used

 
     Parallelization info
     --------------------
     sticks:   dense  smooth     PW     G-vecs:    dense   smooth      PW
     Min         213      70     21                 7158     1369     223
     Max         214      71     22                 7162     1382     226
     Sum        2563     847    253                85923    16529    2685
 


     bravais-lattice index     =            0
     lattice parameter (alat)  =      11.2174  a.u.
     unit-cell volume          =     346.3116 (a.u.)^3
     number of atoms/cell      =            2
     number of atomic types    =            2
     number of electrons       =        20.00
     number of Kohn-Sham states=           10
     kinetic-energy cutoff     =      50.0000  Ry
     charge density cutoff     =     600.0000  Ry
     convergence threshold     =      1.0E-10
     mixing beta               =       0.7000
     number of iterations used =            8  plain     mixing
     Exchange-correlation      = PBESOL ( 1 410 8 0)
     EXX-fraction              =        0.00

     celldm(1)=  11.217414  celldm(2)=   0.000000  celldm(3)=   0.000000
     celldm(4)=   0.000000  celldm(5)=   0.000000  celldm(6)=   0.000000

     crystal axes: (cart. coord. in units of alat)
               a(1) = (   0.000000   0.496882   0.496882 )  
               a(2) = (   0.496882   0.000000   0.496882 )  
               a(3) = (   0.496882   0.496882   0.000000 )  

     reciprocal axes: (cart. coord. in units 2 pi/alat)
               b(1) = ( -1.006276  1.006276  1.006276 )  
               b(2) = (  1.006276 -1.006276  1.006276 )  
               b(3) = (  1.006276  1.006276 -1.006276 )  


     PseudoPot. # 1 for Pb read from file:
     /work/02599/asmiller/pseudo/gbrv/pbe_GBRV/pb_pbe_v1.uspp.F.UPF
     MD5 check sum: 3d1c1779aa92214d1e8f3a7db79003e2
     Pseudo is Ultrasoft + core correction, Zval = 14.0
     Generated by new atomic code, or converted to UPF format
     Using radial grid of  899 points,  6 beta functions with: 
                l(1) =   0
                l(2) =   0
                l(3) =   1
                l(4) =   1
                l(5) =   2
                l(6) =   2
     Q(r) pseudized with  6 coefficients,  rinner =    1.000   1.000   1.000
                                                       1.000   1.000

     PseudoPot. # 2 for S  read from file:
     /work/02599/asmiller/pseudo/gbrv/pbe_GBRV/s_pbe_v1.2.uspp.F.UPF
     MD5 check sum: 2e30864c2a0cf3bb4a9e1f7a4cfc7cf0
     Pseudo is Ultrasoft + core correction, Zval =  6.0
     Generated by new atomic code, or converted to UPF format
     Using radial grid of  907 points,  6 beta functions with: 
                l(1) =   0
                l(2) =   0
                l(3) =   1
                l(4) =   1
                l(5) =   2
                l(6) =   2
     Q(r) pseudized with  8 coefficients,  rinner =    1.300   1.300   1.300
                                                       1.300   1.300

     atomic species   valence    mass     pseudopotential
        Pb            14.00   207.20000     Pb( 1.00)
        S              6.00    32.06000     S ( 1.00)

     48 Sym. Ops., with inversion, found



   Cartesian axes

     site n.     atom                  positions (alat units)
         1           Pb  tau(   1) = (   0.0000000   0.0000000   0.0000000  )
         2           S   tau(   2) = (   0.4968816   0.4968816   0.4968816  )

     number of k points=    72
                       cart. coord. in units 2pi/alat
        k(    1) = (   0.0000000   0.0000000   0.0000000), wk =   0.0011574
        k(    2) = (   0.0838563   0.0838563  -0.0838563), wk =   0.0092593
        k(    3) = (   0.1677127   0.1677127  -0.1677127), wk =   0.0092593
        k(    4) = (   0.2515690   0.2515690  -0.2515690), wk =   0.0092593
        k(    5) = (   0.3354253   0.3354253  -0.3354253), wk =   0.0092593
        k(    6) = (   0.4192816   0.4192816  -0.4192816), wk =   0.0092593
        k(    7) = (  -0.5031380  -0.5031380   0.5031380), wk =   0.0046296
        k(    8) = (   0.1677127   0.0000000   0.0000000), wk =   0.0069444
        k(    9) = (   0.2515690   0.0838563  -0.0838563), wk =   0.0277778
        k(   10) = (   0.3354253   0.1677127  -0.1677127), wk =   0.0277778
        k(   11) = (   0.4192816   0.2515690  -0.2515690), wk =   0.0277778
        k(   12) = (   0.5031380   0.3354253  -0.3354253), wk =   0.0277778
        k(   13) = (  -0.4192816  -0.5869943   0.5869943), wk =   0.0277778
        k(   14) = (  -0.3354253  -0.5031380   0.5031380), wk =   0.0277778
        k(   15) = (  -0.2515690  -0.4192816   0.4192816), wk =   0.0277778
        k(   16) = (  -0.1677127  -0.3354253   0.3354253), wk =   0.0277778
        k(   17) = (  -0.0838563  -0.2515690   0.2515690), wk =   0.0277778
        k(   18) = (   0.0000000  -0.1677127   0.1677127), wk =   0.0138889
        k(   19) = (   0.3354253   0.0000000   0.0000000), wk =   0.0069444
        k(   20) = (   0.4192816   0.0838563  -0.0838563), wk =   0.0277778
        k(   21) = (   0.5031380   0.1677127  -0.1677127), wk =   0.0277778
        k(   22) = (   0.5869943   0.2515690  -0.2515690), wk =   0.0277778
        k(   23) = (  -0.3354253  -0.6708506   0.6708506), wk =   0.0277778
        k(   24) = (  -0.2515690  -0.5869943   0.5869943), wk =   0.0277778
        k(   25) = (  -0.1677127  -0.5031380   0.5031380), wk =   0.0277778
        k(   26) = (  -0.0838563  -0.4192816   0.4192816), wk =   0.0277778
        k(   27) = (   0.0000000  -0.3354253   0.3354253), wk =   0.0138889
        k(   28) = (   0.5031380   0.0000000   0.0000000), wk =   0.0069444
        k(   29) = (   0.5869943   0.0838563  -0.0838563), wk =   0.0277778
        k(   30) = (   0.6708506   0.1677127  -0.1677127), wk =   0.0277778
        k(   31) = (  -0.2515690  -0.7547070   0.7547070), wk =   0.0277778
        k(   32) = (  -0.1677127  -0.6708506   0.6708506), wk =   0.0277778
        k(   33) = (  -0.0838563  -0.5869943   0.5869943), wk =   0.0277778
        k(   34) = (   0.0000000  -0.5031380   0.5031380), wk =   0.0138889
        k(   35) = (   0.6708506   0.0000000   0.0000000), wk =   0.0069444
        k(   36) = (   0.7547070   0.0838563  -0.0838563), wk =   0.0277778
        k(   37) = (  -0.1677127  -0.8385633   0.8385633), wk =   0.0277778
        k(   38) = (  -0.0838563  -0.7547070   0.7547070), wk =   0.0277778
        k(   39) = (   0.0000000  -0.6708506   0.6708506), wk =   0.0138889
        k(   40) = (   0.8385633   0.0000000   0.0000000), wk =   0.0069444
        k(   41) = (  -0.0838563  -0.9224196   0.9224196), wk =   0.0277778
        k(   42) = (   0.0000000  -0.8385633   0.8385633), wk =   0.0138889
        k(   43) = (  -1.0062759   0.0000000   0.0000000), wk =   0.0034722
        k(   44) = (   0.3354253   0.1677127   0.0000000), wk =   0.0277778
        k(   45) = (   0.4192816   0.2515690  -0.0838563), wk =   0.0555556
        k(   46) = (   0.5031380   0.3354253  -0.1677127), wk =   0.0555556
        k(   47) = (  -0.4192816  -0.5869943   0.7547070), wk =   0.0555556
        k(   48) = (  -0.3354253  -0.5031380   0.6708506), wk =   0.0277778
        k(   49) = (   0.5031380   0.1677127   0.0000000), wk =   0.0277778
        k(   50) = (   0.5869943   0.2515690  -0.0838563), wk =   0.0555556
        k(   51) = (  -0.3354253  -0.6708506   0.8385633), wk =   0.0555556
        k(   52) = (  -0.2515690  -0.5869943   0.7547070), wk =   0.0555556
        k(   53) = (  -0.1677127  -0.5031380   0.6708506), wk =   0.0555556
        k(   54) = (  -0.0838563  -0.4192816   0.5869943), wk =   0.0555556
        k(   55) = (   0.0000000  -0.3354253   0.5031380), wk =   0.0277778
        k(   56) = (   0.6708506   0.1677127   0.0000000), wk =   0.0277778
        k(   57) = (  -0.2515690  -0.7547070   0.9224196), wk =   0.0555556
        k(   58) = (  -0.1677127  -0.6708506   0.8385633), wk =   0.0555556
        k(   59) = (  -0.0838563  -0.5869943   0.7547070), wk =   0.0555556
        k(   60) = (   0.0000000  -0.5031380   0.6708506), wk =   0.0277778
        k(   61) = (  -0.1677127  -0.8385633   1.0062759), wk =   0.0277778
        k(   62) = (  -0.0838563  -0.7547070   0.9224196), wk =   0.0555556
        k(   63) = (   0.0000000  -0.6708506   0.8385633), wk =   0.0277778
        k(   64) = (  -1.0062759   0.1677127   0.0000000), wk =   0.0138889
        k(   65) = (  -0.3354253  -0.6708506   1.0062759), wk =   0.0277778
        k(   66) = (  -0.2515690  -0.5869943   0.9224196), wk =   0.0555556
        k(   67) = (  -0.1677127  -0.5031380   0.8385633), wk =   0.0277778
        k(   68) = (  -0.1677127  -0.6708506   1.0062759), wk =   0.0277778
        k(   69) = (  -0.0838563  -0.5869943   0.9224196), wk =   0.0555556
        k(   70) = (   0.0000000  -0.5031380   0.8385633), wk =   0.0277778
        k(   71) = (  -1.0062759   0.3354253   0.0000000), wk =   0.0138889
        k(   72) = (  -1.0062759   0.5031380   0.0000000), wk =   0.0069444

     Dense  grid:    85923 G-vectors     FFT dimensions: (  64,  64,  64)

     Smooth grid:    16529 G-vectors     FFT dimensions: (  36,  36,  36)

     Largest allocated arrays     est. size (Mb)     dimensions
        Kohn-Sham Wavefunctions         0.03 Mb     (    182,   10)
        NL pseudopotentials             0.10 Mb     (    182,   36)
        Each V/rho on FFT grid          0.38 Mb     (  24576)
        Each G-vector array             0.05 Mb     (   7162)
        G-vector shells                 0.00 Mb     (    624)
     Largest temporary arrays     est. size (Mb)     dimensions
        Each subspace H/S matrix        0.00 Mb     (  10,  10)
        Each <psi_i|beta_j> matrix      0.01 Mb     (     36,   10)
        Arrays for rho mixing           3.00 Mb     (  24576,   8)

     Initial potential from superposition of free atoms
     Check: negative starting charge=   -0.016015

     starting charge   19.99761, renormalised to   20.00000

     negative rho (up, down):  0.160E-01 0.000E+00
     Starting wfc are   13 randomized atomic wfcs

     total cpu time spent up to now is        1.5 secs

     per-process dynamical memory:    55.2 Mb

     Self-consistent Calculation

     iteration #  1     ecut=    50.00 Ry     beta=0.70
     CG style diagonalization
     ethr =  1.00E-02,  avg # of iterations =  2.0

     Threshold (ethr) on eigenvalues was too large:
     Diagonalizing with lowered threshold

     CG style diagonalization
     ethr =  5.90E-04,  avg # of iterations =  2.1

     negative rho (up, down):  0.148E-01 0.000E+00

     total cpu time spent up to now is        3.0 secs

     total energy              =    -190.28056935 Ry
     Harris-Foulkes estimate   =    -190.36075173 Ry
     estimated scf accuracy    <       0.11185418 Ry

     iteration #  2     ecut=    50.00 Ry     beta=0.70
     CG style diagonalization
     ethr =  5.59E-04,  avg # of iterations =  3.8

     negative rho (up, down):  0.154E-01 0.000E+00

     total cpu time spent up to now is        4.0 secs

     total energy              =    -190.30436973 Ry
     Harris-Foulkes estimate   =    -190.36099830 Ry
     estimated scf accuracy    <       0.11629876 Ry

     iteration #  3     ecut=    50.00 Ry     beta=0.70
     CG style diagonalization
     ethr =  5.59E-04,  avg # of iterations =  3.5

     negative rho (up, down):  0.153E-01 0.000E+00

     total cpu time spent up to now is        4.9 secs

     total energy              =    -190.32925243 Ry
     Harris-Foulkes estimate   =    -190.32945256 Ry
     estimated scf accuracy    <       0.00059237 Ry

     iteration #  4     ecut=    50.00 Ry     beta=0.70
     CG style diagonalization
     ethr =  2.96E-06,  avg # of iterations =  4.5

     negative rho (up, down):  0.153E-01 0.000E+00

     total cpu time spent up to now is        6.1 secs

     total energy              =    -190.33160634 Ry
     Harris-Foulkes estimate   =    -190.33163289 Ry
     estimated scf accuracy    <       0.00007020 Ry

     iteration #  5     ecut=    50.00 Ry     beta=0.70
     CG style diagonalization
     ethr =  3.51E-07,  avg # of iterations =  4.7

     negative rho (up, down):  0.153E-01 0.000E+00

     total cpu time spent up to now is        7.3 secs

     total energy              =    -190.33164515 Ry
     Harris-Foulkes estimate   =    -190.33164550 Ry
     estimated scf accuracy    <       0.00000815 Ry

     iteration #  6     ecut=    50.00 Ry     beta=0.70
     CG style diagonalization
     ethr =  4.08E-08,  avg # of iterations =  6.5

     negative rho (up, down):  0.153E-01 0.000E+00

     total cpu time spent up to now is        8.9 secs

     total energy              =    -190.33166138 Ry
     Harris-Foulkes estimate   =    -190.33166075 Ry
     estimated scf accuracy    <       0.00000990 Ry

     iteration #  7     ecut=    50.00 Ry     beta=0.70
     CG style diagonalization
     ethr =  4.08E-08,  avg # of iterations =  3.4

     negative rho (up, down):  0.156E-01 0.000E+00

     total cpu time spent up to now is        9.8 secs

     total energy              =    -190.33165697 Ry
     Harris-Foulkes estimate   =    -190.33166244 Ry
     estimated scf accuracy    <       0.00001064 Ry

     iteration #  8     ecut=    50.00 Ry     beta=0.70
     CG style diagonalization
     ethr =  4.08E-08,  avg # of iterations =  4.0

     negative rho (up, down):  0.157E-01 0.000E+00

     total cpu time spent up to now is       10.9 secs

     total energy              =    -190.33166012 Ry
     Harris-Foulkes estimate   =    -190.33166153 Ry
     estimated scf accuracy    <       0.00000617 Ry

     iteration #  9     ecut=    50.00 Ry     beta=0.70
     CG style diagonalization
     ethr =  3.09E-08,  avg # of iterations =  3.1

     negative rho (up, down):  0.157E-01 0.000E+00

     total cpu time spent up to now is       11.7 secs

     total energy              =    -190.33165995 Ry
     Harris-Foulkes estimate   =    -190.33166056 Ry
     estimated scf accuracy    <       0.00000283 Ry

     iteration # 10     ecut=    50.00 Ry     beta=0.70
     CG style diagonalization
     ethr =  1.41E-08,  avg # of iterations =  3.1

     negative rho (up, down):  0.157E-01 0.000E+00

     total cpu time spent up to now is       12.6 secs

     total energy              =    -190.33166049 Ry
     Harris-Foulkes estimate   =    -190.33166014 Ry
     estimated scf accuracy    <       0.00000176 Ry

     iteration # 11     ecut=    50.00 Ry     beta=0.70
     CG style diagonalization
     ethr =  8.82E-09,  avg # of iterations =  3.3

     negative rho (up, down):  0.157E-01 0.000E+00

     total cpu time spent up to now is       13.6 secs

     total energy              =    -190.33166119 Ry
     Harris-Foulkes estimate   =    -190.33166069 Ry
     estimated scf accuracy    <       0.00000261 Ry

     iteration # 12     ecut=    50.00 Ry     beta=0.70
     CG style diagonalization
     ethr =  8.82E-09,  avg # of iterations =  3.0

     negative rho (up, down):  0.156E-01 0.000E+00

     total cpu time spent up to now is       14.4 secs

     total energy              =    -190.33165903 Ry
     Harris-Foulkes estimate   =    -190.33166128 Ry
     estimated scf accuracy    <       0.00000377 Ry

     iteration # 13     ecut=    50.00 Ry     beta=0.70
     CG style diagonalization
     ethr =  8.82E-09,  avg # of iterations =  3.8

     negative rho (up, down):  0.156E-01 0.000E+00

     total cpu time spent up to now is       15.4 secs

     total energy              =    -190.33165980 Ry
     Harris-Foulkes estimate   =    -190.33165976 Ry
     estimated scf accuracy    <       0.00000024 Ry

     iteration # 14     ecut=    50.00 Ry     beta=0.70
     CG style diagonalization
     ethr =  1.21E-09,  avg # of iterations =  6.4

     negative rho (up, down):  0.156E-01 0.000E+00

     total cpu time spent up to now is       17.0 secs

     total energy              =    -190.33166023 Ry
     Harris-Foulkes estimate   =    -190.33166019 Ry
     estimated scf accuracy    <       0.00000035 Ry

     iteration # 15     ecut=    50.00 Ry     beta=0.70
     CG style diagonalization
     ethr =  1.21E-09,  avg # of iterations =  4.3

     negative rho (up, down):  0.156E-01 0.000E+00

     total cpu time spent up to now is       18.1 secs

     total energy              =    -190.33165976 Ry
     Harris-Foulkes estimate   =    -190.33166055 Ry
     estimated scf accuracy    <       0.00000113 Ry

     iteration # 16     ecut=    50.00 Ry     beta=0.70
     CG style diagonalization
     ethr =  1.21E-09,  avg # of iterations =  4.2

     negative rho (up, down):  0.155E-01 0.000E+00

     total cpu time spent up to now is       19.2 secs

     total energy              =    -190.33166002 Ry
     Harris-Foulkes estimate   =    -190.33166001 Ry
     estimated scf accuracy    <          5.4E-09 Ry

     iteration # 17     ecut=    50.00 Ry     beta=0.70
     CG style diagonalization
     ethr =  2.72E-11,  avg # of iterations =  9.7

     negative rho (up, down):  0.156E-01 0.000E+00

     total cpu time spent up to now is       21.5 secs

     total energy              =    -190.33166007 Ry
     Harris-Foulkes estimate   =    -190.33166009 Ry
     estimated scf accuracy    <       0.00000004 Ry

     iteration # 18     ecut=    50.00 Ry     beta=0.70
     CG style diagonalization
     ethr =  2.72E-11,  avg # of iterations =  4.7

     negative rho (up, down):  0.156E-01 0.000E+00

     total cpu time spent up to now is       22.7 secs

     total energy              =    -190.33166011 Ry
     Harris-Foulkes estimate   =    -190.33166007 Ry
     estimated scf accuracy    <       0.00000003 Ry

     iteration # 19     ecut=    50.00 Ry     beta=0.70
     CG style diagonalization
     ethr =  2.72E-11,  avg # of iterations =  5.2

     negative rho (up, down):  0.156E-01 0.000E+00

     total cpu time spent up to now is       23.9 secs

     total energy              =    -190.33166002 Ry
     Harris-Foulkes estimate   =    -190.33166017 Ry
     estimated scf accuracy    <       0.00000026 Ry

     iteration # 20     ecut=    50.00 Ry     beta=0.70
     CG style diagonalization
     ethr =  2.72E-11,  avg # of iterations =  5.3

     negative rho (up, down):  0.156E-01 0.000E+00

     total cpu time spent up to now is       25.2 secs

     total energy              =    -190.33166007 Ry
     Harris-Foulkes estimate   =    -190.33166007 Ry
     estimated scf accuracy    <          1.8E-10 Ry

     iteration # 21     ecut=    50.00 Ry     beta=0.70
     CG style diagonalization
     ethr =  9.00E-13,  avg # of iterations =  6.5

     negative rho (up, down):  0.156E-01 0.000E+00

     total cpu time spent up to now is       26.8 secs

     total energy              =    -190.33166007 Ry
     Harris-Foulkes estimate   =    -190.33166007 Ry
     estimated scf accuracy    <          1.4E-10 Ry

     iteration # 22     ecut=    50.00 Ry     beta=0.70
     CG style diagonalization
     ethr =  7.13E-13,  avg # of iterations =  4.4

     negative rho (up, down):  0.156E-01 0.000E+00

     total cpu time spent up to now is       27.9 secs

     End of self-consistent calculation

          k = 0.0000 0.0000 0.0000 (  2085 PWs)   bands (ev):

    -8.0084  -8.0084  -8.0084  -7.9948  -7.9948  -5.0043   2.7238   6.5179
     6.5179   6.5179

          k = 0.0839 0.0839-0.0839 (  2079 PWs)   bands (ev):

    -8.0081  -8.0066  -8.0066  -7.9956  -7.9956  -4.9425   2.4968   6.5374
     6.5374   6.6911

          k = 0.1677 0.1677-0.1677 (  2052 PWs)   bands (ev):

    -8.0077  -8.0077  -8.0073  -7.9915  -7.9915  -4.7623   1.9333   6.5950
     6.5950   7.0962

          k = 0.2516 0.2516-0.2516 (  2066 PWs)   bands (ev):

    -8.0149  -8.0149  -8.0065  -7.9803  -7.9803  -4.4821   1.2270   6.6858
     6.6858   7.5600

          k = 0.3354 0.3354-0.3354 (  2054 PWs)   bands (ev):

    -8.0229  -8.0229  -8.0061  -7.9681  -7.9681  -4.1444   0.5300   6.7950
     6.7950   7.9997

          k = 0.4193 0.4193-0.4193 (  2066 PWs)   bands (ev):

    -8.0289  -8.0289  -8.0059  -7.9591  -7.9591  -3.8371  -0.0121   6.8906
     6.8906   8.4173

          k =-0.5031-0.5031 0.5031 (  2060 PWs)   bands (ev):

    -8.0311  -8.0311  -8.0059  -7.9558  -7.9558  -3.7043  -0.2261   6.9300
     6.9300   8.7894

          k = 0.1677 0.0000 0.0000 (  2073 PWs)   bands (ev):

    -8.0103  -8.0042  -8.0042  -8.0005  -7.9929  -4.9213   2.4471   6.4227
     6.4227   6.9542

          k = 0.2516 0.0839-0.0839 (  2053 PWs)   bands (ev):

    -8.0113  -8.0085  -8.0019  -7.9977  -7.9888  -4.7789   2.0488   6.3584
     6.4098   7.3508

          k = 0.3354 0.1677-0.1677 (  2059 PWs)   bands (ev):

    -8.0198  -8.0086  -8.0065  -7.9888  -7.9781  -4.5295   1.4389   6.3601
     6.4942   7.7068

          k = 0.4193 0.2516-0.2516 (  2060 PWs)   bands (ev):

    -8.0295  -8.0141  -8.0064  -7.9783  -7.9663  -4.2067   0.7699   6.4340
     6.5841   7.9361

          k = 0.5031 0.3354-0.3354 (  2068 PWs)   bands (ev):

    -8.0363  -8.0216  -8.0047  -7.9684  -7.9578  -3.8805   0.1873   6.5719
     6.5987   8.0570

          k =-0.4193-0.5870 0.5870 (  2067 PWs)   bands (ev):

    -8.0384  -8.0265  -8.0037  -7.9617  -7.9552  -3.6774  -0.1418   6.4966
     6.7439   8.2037

          k =-0.3354-0.5031 0.5031 (  2069 PWs)   bands (ev):

    -8.0354  -8.0276  -8.0036  -7.9600  -7.9593  -3.7226  -0.0751   6.3332
     6.8954   8.3680

          k =-0.2516-0.4193 0.4193 (  2059 PWs)   bands (ev):

    -8.0281  -8.0244  -8.0043  -7.9690  -7.9639  -3.9846   0.3517   6.1954
     6.9662   8.2880

          k =-0.1677-0.3354 0.3354 (  2059 PWs)   bands (ev):

    -8.0187  -8.0177  -8.0056  -7.9818  -7.9722  -4.3212   0.9718   6.1350
     6.9336   7.9599

          k =-0.0839-0.2516 0.2516 (  2059 PWs)   bands (ev):

    -8.0099  -8.0093  -8.0071  -7.9942  -7.9824  -4.6249   1.6284   6.1742
     6.8244   7.5153

          k = 0.0000-0.1677 0.1677 (  2061 PWs)   bands (ev):

    -8.0084  -8.0051  -8.0035  -8.0010  -7.9910  -4.8405   2.1848   6.3204
     6.6805   7.0426

          k = 0.3354 0.0000 0.0000 (  2053 PWs)   bands (ev):

    -8.0214  -8.0155  -7.9924  -7.9924  -7.9877  -4.6738   1.9182   6.1666
     6.1666   7.6461

          k = 0.4193 0.0839-0.0839 (  2056 PWs)   bands (ev):

    -8.0370  -8.0168  -7.9934  -7.9848  -7.9771  -4.4587   1.5457   6.0544
     6.0894   7.5914

          k = 0.5031 0.1677-0.1677 (  2059 PWs)   bands (ev):

    -8.0507  -8.0139  -7.9997  -7.9781  -7.9646  -4.1625   1.0225   6.0422
     6.0847   7.2915

          k = 0.5870 0.2516-0.2516 (  2074 PWs)   bands (ev):

    -8.0593  -8.0080  -8.0071  -7.9734  -7.9560  -3.8423   0.4872   5.9604
     6.1364   7.1353

          k =-0.3354-0.6709 0.6709 (  2070 PWs)   bands (ev):

    -8.0610  -8.0139  -8.0016  -7.9708  -7.9536  -3.6008   0.1010   5.6874
     6.3269   7.2895

          k =-0.2516-0.5870 0.5870 (  2070 PWs)   bands (ev):

    -8.0555  -8.0181  -7.9976  -7.9695  -7.9580  -3.5638   0.0179   5.4509
     6.5800   7.6316

          k =-0.1677-0.5031 0.5031 (  2071 PWs)   bands (ev):

    -8.0444  -8.0189  -7.9978  -7.9692  -7.9678  -3.7568   0.2644   5.3590
     6.8300   8.0382

          k =-0.0839-0.4193 0.4193 (  2067 PWs)   bands (ev):

    -8.0306  -8.0164  -8.0012  -7.9800  -7.9707  -4.0691   0.7081   5.4526
     6.9844   8.2515

          k = 0.0000-0.3354 0.3354 (  2057 PWs)   bands (ev):

    -8.0178  -8.0121  -8.0052  -7.9905  -7.9751  -4.3820   1.1973   5.7371
     6.9773   8.0048

          k = 0.5031 0.0000 0.0000 (  2045 PWs)   bands (ev):

    -8.0609  -8.0226  -7.9807  -7.9760  -7.9760  -4.2803   1.4773   5.8285
     5.8285   6.9756

          k = 0.5870 0.0839-0.0839 (  2059 PWs)   bands (ev):

    -8.0818  -8.0238  -7.9835  -7.9685  -7.9633  -4.0210   1.2152   5.6834
     5.7160   6.3365

          k = 0.6709 0.1677-0.1677 (  2067 PWs)   bands (ev):

    -8.0942  -8.0195  -7.9896  -7.9650  -7.9539  -3.7301   0.8340   5.3010
     5.7330   6.2119

          k =-0.2516-0.7547 0.7547 (  2071 PWs)   bands (ev):

    -8.0957  -8.0105  -7.9968  -7.9663  -7.9511  -3.4888   0.4707   4.8572
     5.8802   6.4672

          k =-0.1677-0.6709 0.6709 (  2070 PWs)   bands (ev):

    -8.0867  -8.0036  -7.9989  -7.9721  -7.9550  -3.3996   0.2661   4.6086
     6.1414   6.8706

          k =-0.0839-0.5870 0.5870 (  2069 PWs)   bands (ev):

    -8.0697  -8.0091  -7.9888  -7.9791  -7.9637  -3.5142   0.2831   4.6218
     6.4752   7.3775

          k = 0.0000-0.5031 0.5031 (  2065 PWs)   bands (ev):

    -8.0492  -8.0133  -7.9932  -7.9751  -7.9733  -3.7729   0.4615   4.9145
     6.7989   7.9303

          k = 0.6709 0.0000 0.0000 (  2064 PWs)   bands (ev):

    -8.1109  -8.0297  -7.9736  -7.9591  -7.9591  -3.8082   1.2692   5.3983
     5.5054   5.5054

          k = 0.7547 0.0839-0.0839 (  2072 PWs)   bands (ev):

    -8.1291  -8.0298  -7.9748  -7.9539  -7.9510  -3.5687   1.1516   4.6407
     5.4352   5.5498

          k =-0.1677-0.8386 0.8386 (  2070 PWs)   bands (ev):

    -8.1323  -8.0237  -7.9805  -7.9547  -7.9476  -3.3667   0.9102   4.1278
     5.5136   5.8089

          k =-0.0839-0.7547 0.7547 (  2080 PWs)   bands (ev):

    -8.1206  -8.0122  -7.9885  -7.9615  -7.9505  -3.2733   0.6362   3.9442
     5.7344   6.2190

          k = 0.0000-0.6709 0.6709 (  2079 PWs)   bands (ev):

    -8.0977  -7.9983  -7.9979  -7.9723  -7.9571  -3.3299   0.4117   4.1205
     6.0732   6.7478

          k = 0.8386 0.0000 0.0000 (  2072 PWs)   bands (ev):

    -8.1529  -8.0349  -7.9684  -7.9464  -7.9464  -3.3986   1.3445   4.0079
     5.2785   5.2785

          k =-0.0839-0.9224 0.9224 (  2070 PWs)   bands (ev):

    -8.1594  -8.0333  -7.9699  -7.9452  -7.9437  -3.2696   1.3173   3.5890
     5.2782   5.3612

          k = 0.0000-0.8386 0.8386 (  2083 PWs)   bands (ev):

    -8.1474  -8.0252  -7.9767  -7.9508  -7.9457  -3.2235   1.0396   3.5680
     5.4348   5.7019

          k =-1.0063 0.0000 0.0000 (  2068 PWs)   bands (ev):

    -8.1693  -8.0368  -7.9665  -7.9416  -7.9416  -3.2323   1.5030   3.3720
     5.1974   5.1974

          k = 0.3354 0.1677 0.0000 (  2054 PWs)   bands (ev):

    -8.0192  -8.0118  -8.0006  -7.9929  -7.9812  -4.6001   1.6753   6.0476
     6.5335   7.6918

          k = 0.4193 0.2516-0.0839 (  2062 PWs)   bands (ev):

    -8.0310  -8.0095  -8.0056  -7.9845  -7.9717  -4.3250   1.1503   5.8338
     6.6729   7.8340

          k = 0.5031 0.3354-0.1677 (  2061 PWs)   bands (ev):

    -8.0415  -8.0132  -8.0046  -7.9762  -7.9633  -3.9985   0.5882   5.7598
     6.6714   7.8373

          k =-0.4193-0.5870 0.7547 (  2061 PWs)   bands (ev):

    -8.0485  -8.0191  -8.0006  -7.9702  -7.9576  -3.7075   0.1322   5.8062
     6.4949   7.8820

          k =-0.3354-0.5031 0.6709 (  2054 PWs)   bands (ev):

    -8.0510  -8.0213  -7.9991  -7.9679  -7.9556  -3.5840  -0.0502   5.8699
     6.3641   7.9224

          k = 0.5031 0.1677 0.0000 (  2057 PWs)   bands (ev):

    -8.0551  -8.0180  -7.9929  -7.9763  -7.9692  -4.2192   1.2474   5.6922
     6.1705   7.1602

          k = 0.5870 0.2516-0.0839 (  2065 PWs)   bands (ev):

    -8.0692  -8.0145  -7.9977  -7.9702  -7.9611  -3.9203   0.8424   5.4559
     6.0455   6.9637

          k =-0.3354-0.6709 0.8386 (  2075 PWs)   bands (ev):

    -8.0767  -8.0084  -8.0023  -7.9701  -7.9550  -3.6324   0.4425   5.3224
     5.7232   7.1753

          k =-0.2516-0.5870 0.7547 (  2064 PWs)   bands (ev):

    -8.0765  -8.0105  -7.9959  -7.9744  -7.9536  -3.4634   0.1936   5.1179
     5.7192   7.4811

          k =-0.1677-0.5031 0.6709 (  2062 PWs)   bands (ev):

    -8.0695  -8.0126  -7.9922  -7.9770  -7.9575  -3.5058   0.2065   4.9813
     5.9853   7.7350

          k =-0.0839-0.4193 0.5870 (  2071 PWs)   bands (ev):

    -8.0577  -8.0114  -7.9988  -7.9732  -7.9653  -3.7356   0.4520   5.0485
     6.3640   7.8315

          k = 0.0000-0.3354 0.5031 (  2060 PWs)   bands (ev):

    -8.0440  -8.0081  -8.0060  -7.9768  -7.9691  -4.0411   0.8021   5.3440
     6.6764   7.8131

          k = 0.6709 0.1677 0.0000 (  2067 PWs)   bands (ev):

    -8.1022  -8.0244  -7.9832  -7.9593  -7.9583  -3.7659   1.0488   5.3368
     5.3565   6.1309

          k =-0.2516-0.7547 0.9224 (  2071 PWs)   bands (ev):

    -8.1119  -8.0192  -7.9878  -7.9597  -7.9514  -3.5126   0.7984   4.7400
     5.2004   6.4586

          k =-0.1677-0.6709 0.8386 (  2072 PWs)   bands (ev):

    -8.1095  -8.0093  -7.9935  -7.9669  -7.9492  -3.3423   0.5545   4.3641
     5.2488   6.8797

          k =-0.0839-0.5870 0.7547 (  2075 PWs)   bands (ev):

    -8.0969  -8.0029  -7.9927  -7.9780  -7.9527  -3.3297   0.4057   4.2863
     5.4893   7.3163

          k = 0.0000-0.5031 0.6709 (  2076 PWs)   bands (ev):

    -8.0778  -8.0072  -7.9898  -7.9805  -7.9600  -3.4835   0.3808   4.5264
     5.8882   7.6800

          k =-0.1677-0.8386 1.0063 (  2071 PWs)   bands (ev):

    -8.1425  -8.0291  -7.9751  -7.9510  -7.9464  -3.3782   1.1230   4.0651
     5.1224   5.8179

          k =-0.0839-0.7547 0.9224 (  2080 PWs)   bands (ev):

    -8.1399  -8.0219  -7.9802  -7.9567  -7.9441  -3.2521   0.9568   3.7658
     5.0175   6.2694

          k = 0.0000-0.6709 0.8386 (  2085 PWs)   bands (ev):

    -8.1229  -8.0100  -7.9885  -7.9671  -7.9469  -3.2338   0.6863   3.8472
     5.1501   6.7896

          k =-1.0063 0.1677 0.0000 (  2074 PWs)   bands (ev):

    -8.1583  -8.0308  -7.9719  -7.9484  -7.9416  -3.2230   1.2635   3.4703
     5.0390   5.7274

          k =-0.3354-0.6709 1.0063 (  2061 PWs)   bands (ev):

    -8.0838  -8.0098  -7.9998  -7.9650  -7.9598  -3.6473   0.6421   4.9812
     5.5411   7.2401

          k =-0.2516-0.5870 0.9224 (  2069 PWs)   bands (ev):

    -8.0930  -8.0043  -7.9985  -7.9735  -7.9525  -3.4202   0.4706   4.7141
     5.0944   7.5731

          k =-0.1677-0.5031 0.8386 (  2072 PWs)   bands (ev):

    -8.0961  -8.0052  -7.9877  -7.9845  -7.9497  -3.3294   0.3998   4.6467
     4.9112   7.7150

          k =-0.1677-0.6709 1.0063 (  2071 PWs)   bands (ev):

    -8.1195  -8.0129  -7.9902  -7.9650  -7.9466  -3.3264   0.7445   4.3028
     4.7321   6.9842

          k =-0.0839-0.5870 0.9224 (  2078 PWs)   bands (ev):

    -8.1172  -8.0026  -7.9930  -7.9772  -7.9441  -3.2334   0.6630   4.1108
     4.5711   7.4597

          k = 0.0000-0.5031 0.8386 (  2079 PWs)   bands (ev):

    -8.1073  -8.0000  -7.9903  -7.9853  -7.9468  -3.2693   0.5582   4.2631
     4.6967   7.7093

          k =-1.0063 0.3354 0.0000 (  2078 PWs)   bands (ev):

    -8.1338  -8.0141  -7.9850  -7.9666  -7.9416  -3.2035   0.8790   3.7514
     4.6439   6.9032

          k =-1.0063 0.5031 0.0000 (  2120 PWs)   bands (ev):

    -8.1196  -7.9935  -7.9907  -7.9907  -7.9417  -3.1933   0.7161   4.1705
     4.1705   7.7199

!    total energy              =    -190.33166007 Ry
     Harris-Foulkes estimate   =    -190.33166007 Ry
     estimated scf accuracy    <          2.6E-11 Ry

     The total energy is the sum of the following terms:

     one-electron contribution =     -35.74306332 Ry
     hartree contribution      =      31.10525434 Ry
     xc contribution           =     -73.85098691 Ry
     ewald contribution        =    -111.84286418 Ry

     convergence has been achieved in  22 iterations

     Forces acting on atoms (Ry/au):


     negative rho (up, down):  0.156E-01 0.000E+00
     atom    1 type  1   force =     0.00000000    0.00000000    0.00000000
     atom    2 type  2   force =     0.00000000    0.00000000    0.00000000

     Total force =     0.000000     Total SCF correction =     0.000000


     entering subroutine stress ...


     negative rho (up, down):  0.156E-01 0.000E+00
          total   stress  (Ry/bohr**3)                   (kbar)     P=   -0.09
  -0.00000060   0.00000000   0.00000000         -0.09      0.00      0.00
   0.00000000  -0.00000060   0.00000000          0.00     -0.09      0.00
   0.00000000   0.00000000  -0.00000060          0.00      0.00     -0.09


     Writing output data file PbS.save
 
     init_run     :      1.08s CPU      1.18s WALL (       1 calls)
     electrons    :     25.15s CPU     26.44s WALL (       1 calls)
     forces       :      0.18s CPU      0.18s WALL (       1 calls)
     stress       :      0.51s CPU      0.52s WALL (       1 calls)

     Called by init_run:
     wfcinit      :      0.31s CPU      0.33s WALL (       1 calls)
     potinit      :      0.07s CPU      0.08s WALL (       1 calls)

     Called by electrons:
     c_bands      :     19.90s CPU     20.23s WALL (      23 calls)
     sum_band     :      3.20s CPU      3.23s WALL (      23 calls)
     v_of_rho     :      0.54s CPU      0.57s WALL (      23 calls)
     newd         :      1.18s CPU      1.19s WALL (      23 calls)
     mix_rho      :      0.09s CPU      0.10s WALL (      23 calls)

     Called by c_bands:
     init_us_2    :      0.14s CPU      0.17s WALL (    1764 calls)
     ccgdiagg     :     16.46s CPU     16.63s WALL (     828 calls)
     wfcrot       :      3.36s CPU      3.40s WALL (     792 calls)

     Called by *cgdiagg:
     h_psi        :     14.15s CPU     14.43s WALL (   29627 calls)
     s_psi        :      0.91s CPU      1.04s WALL (   58462 calls)
     cdiaghg      :      0.04s CPU      0.07s WALL (     792 calls)

     Called by h_psi:
     add_vuspsi   :      0.44s CPU      0.56s WALL (   29627 calls)

     General routines
     calbec       :      2.68s CPU      2.60s WALL (   59362 calls)
     fft          :      0.61s CPU      0.60s WALL (     393 calls)
     ffts         :      0.02s CPU      0.01s WALL (      46 calls)
     fftw         :     10.95s CPU     11.03s WALL (   82006 calls)
     interpolate  :      0.11s CPU      0.09s WALL (      46 calls)
     davcio       :      0.01s CPU      0.11s WALL (    2592 calls)
 
     Parallel routines
     fft_scatter  :      5.95s CPU      5.94s WALL (   82445 calls)
 
     PWSCF        :    27.21s CPU        32.24s WALL

 
   This run was terminated on:  23:24:53  17Aug2014            

=------------------------------------------------------------------------------=
   JOB DONE.
=------------------------------------------------------------------------------=
TACC: Shutting down parallel environment.
TACC: Shutdown complete. Exiting.
