TACC: Starting up job 2055390
TACC: Setting up parallel environment for MVAPICH ssh-based mpirun.
TACC: Setup complete. Running job script.
TACC: starting parallel tasks...

     Program PWSCF v.5.0.1 starts on  9Jul2014 at 12:40:23 

     This program is part of the open-source Quantum ESPRESSO suite
     for quantum simulation of materials; please cite
         "P. Giannozzi et al., J. Phys.:Condens. Matter 21 395502 (2009);
          URL http://www.quantum-espresso.org", 
     in publications or presentations arising from this work. More details at
     http://www.quantum-espresso.org/quote.php

     Parallel version (MPI), running on    24 processors
     K-points division:     npool     =    2
     R & G space division:  proc/pool =   12

     Current dimensions of program PWSCF are:
     Max number of different atomic species (ntypx) = 10
     Max number of k-points (npk) =  40000
     Max angular momentum in pseudopotentials (lmaxx) =  3
     Waiting for input...
     Reading input from standard input
Warning: card &IONS ignored
Warning: card ION_DYNAMICS='BFGS', ignored
Warning: card / ignored
Warning: card &CELL ignored
Warning: card CELL_DYNAMICS='BFGS', ignored
Warning: card PRESS=0.D0 ignored
Warning: card / ignored

     IMPORTANT: XC functional enforced from input :
     Exchange-correlation      = PBESOL ( 1 410 8 0)
     EXX-fraction              =        0.00
     Any further DFT definition will be discarded
     Please, verify this is what you really want


     Subspace diagonalization in iterative solution of the eigenvalue problem:
     a serial algorithm will be used

 
     Parallelization info
     --------------------
     sticks:   dense  smooth     PW     G-vecs:    dense   smooth      PW
     Min         228      77     22                 7916     1511     240
     Max         230      78     23                 7918     1524     243
     Sum        2749     925    265                95001    18197    2891
 


     bravais-lattice index     =            0
     lattice parameter (alat)  =      11.5651  a.u.
     unit-cell volume          =     382.9929 (a.u.)^3
     number of atoms/cell      =            2
     number of atomic types    =            2
     number of electrons       =        20.00
     number of Kohn-Sham states=           10
     kinetic-energy cutoff     =      50.0000  Ry
     charge density cutoff     =     600.0000  Ry
     convergence threshold     =      1.0E-10
     mixing beta               =       0.7000
     number of iterations used =            8  plain     mixing
     Exchange-correlation      = PBESOL ( 1 410 8 0)
     EXX-fraction              =        0.00

     celldm(1)=  11.565124  celldm(2)=   0.000000  celldm(3)=   0.000000
     celldm(4)=   0.000000  celldm(5)=   0.000000  celldm(6)=   0.000000

     crystal axes: (cart. coord. in units of alat)
               a(1) = (   0.000000   0.498391   0.498391 )  
               a(2) = (   0.498391   0.000000   0.498391 )  
               a(3) = (   0.498391   0.498391   0.000000 )  

     reciprocal axes: (cart. coord. in units 2 pi/alat)
               b(1) = ( -1.003229  1.003229  1.003229 )  
               b(2) = (  1.003229 -1.003229  1.003229 )  
               b(3) = (  1.003229  1.003229 -1.003229 )  


     PseudoPot. # 1 for Pb read from file:
     /work/02599/asmiller/pseudo/gbrv/pbe_GBRV/pb_pbe_v1.uspp.F.UPF
     MD5 check sum: 3d1c1779aa92214d1e8f3a7db79003e2
     Pseudo is Ultrasoft + core correction, Zval = 14.0
     Generated by new atomic code, or converted to UPF format
     Using radial grid of  899 points,  6 beta functions with: 
                l(1) =   0
                l(2) =   0
                l(3) =   1
                l(4) =   1
                l(5) =   2
                l(6) =   2
     Q(r) pseudized with  6 coefficients,  rinner =    1.000   1.000   1.000
                                                       1.000   1.000

     PseudoPot. # 2 for Se read from file:
     /work/02599/asmiller/pseudo/gbrv/pbe_GBRV/se_pbe_v1.uspp.F.UPF
     MD5 check sum: 1b3568f3a8ae88f9a2a0ad0698632c85
     Pseudo is Ultrasoft + core correction, Zval =  6.0
     Generated by new atomic code, or converted to UPF format
     Using radial grid of  877 points,  6 beta functions with: 
                l(1) =   0
                l(2) =   0
                l(3) =   1
                l(4) =   1
                l(5) =   2
                l(6) =   2
     Q(r) pseudized with  8 coefficients,  rinner =    1.300   1.300   1.300
                                                       1.300   1.300

     atomic species   valence    mass     pseudopotential
        Pb            14.00   207.20000     Pb( 1.00)
        Se             6.00    78.96000     Se( 1.00)

     48 Sym. Ops., with inversion, found



   Cartesian axes

     site n.     atom                  positions (alat units)
         1           Pb  tau(   1) = (   0.0000000   0.0000000   0.0000000  )
         2           Se  tau(   2) = (   0.4983907   0.4983907   0.4983907  )

     number of k points=    72
                       cart. coord. in units 2pi/alat
        k(    1) = (   0.0000000   0.0000000   0.0000000), wk =   0.0011574
        k(    2) = (   0.0836024   0.0836024  -0.0836024), wk =   0.0092593
        k(    3) = (   0.1672048   0.1672048  -0.1672048), wk =   0.0092593
        k(    4) = (   0.2508072   0.2508072  -0.2508072), wk =   0.0092593
        k(    5) = (   0.3344096   0.3344096  -0.3344096), wk =   0.0092593
        k(    6) = (   0.4180121   0.4180121  -0.4180121), wk =   0.0092593
        k(    7) = (  -0.5016145  -0.5016145   0.5016145), wk =   0.0046296
        k(    8) = (   0.1672048   0.0000000   0.0000000), wk =   0.0069444
        k(    9) = (   0.2508072   0.0836024  -0.0836024), wk =   0.0277778
        k(   10) = (   0.3344096   0.1672048  -0.1672048), wk =   0.0277778
        k(   11) = (   0.4180121   0.2508072  -0.2508072), wk =   0.0277778
        k(   12) = (   0.5016145   0.3344096  -0.3344096), wk =   0.0277778
        k(   13) = (  -0.4180121  -0.5852169   0.5852169), wk =   0.0277778
        k(   14) = (  -0.3344096  -0.5016145   0.5016145), wk =   0.0277778
        k(   15) = (  -0.2508072  -0.4180121   0.4180121), wk =   0.0277778
        k(   16) = (  -0.1672048  -0.3344096   0.3344096), wk =   0.0277778
        k(   17) = (  -0.0836024  -0.2508072   0.2508072), wk =   0.0277778
        k(   18) = (   0.0000000  -0.1672048   0.1672048), wk =   0.0138889
        k(   19) = (   0.3344096   0.0000000   0.0000000), wk =   0.0069444
        k(   20) = (   0.4180121   0.0836024  -0.0836024), wk =   0.0277778
        k(   21) = (   0.5016145   0.1672048  -0.1672048), wk =   0.0277778
        k(   22) = (   0.5852169   0.2508072  -0.2508072), wk =   0.0277778
        k(   23) = (  -0.3344096  -0.6688193   0.6688193), wk =   0.0277778
        k(   24) = (  -0.2508072  -0.5852169   0.5852169), wk =   0.0277778
        k(   25) = (  -0.1672048  -0.5016145   0.5016145), wk =   0.0277778
        k(   26) = (  -0.0836024  -0.4180121   0.4180121), wk =   0.0277778
        k(   27) = (   0.0000000  -0.3344096   0.3344096), wk =   0.0138889
        k(   28) = (   0.5016145   0.0000000   0.0000000), wk =   0.0069444
        k(   29) = (   0.5852169   0.0836024  -0.0836024), wk =   0.0277778
        k(   30) = (   0.6688193   0.1672048  -0.1672048), wk =   0.0277778
        k(   31) = (  -0.2508072  -0.7524217   0.7524217), wk =   0.0277778
        k(   32) = (  -0.1672048  -0.6688193   0.6688193), wk =   0.0277778
        k(   33) = (  -0.0836024  -0.5852169   0.5852169), wk =   0.0277778
        k(   34) = (   0.0000000  -0.5016145   0.5016145), wk =   0.0138889
        k(   35) = (   0.6688193   0.0000000   0.0000000), wk =   0.0069444
        k(   36) = (   0.7524217   0.0836024  -0.0836024), wk =   0.0277778
        k(   37) = (  -0.1672048  -0.8360241   0.8360241), wk =   0.0277778
        k(   38) = (  -0.0836024  -0.7524217   0.7524217), wk =   0.0277778
        k(   39) = (   0.0000000  -0.6688193   0.6688193), wk =   0.0138889
        k(   40) = (   0.8360241   0.0000000   0.0000000), wk =   0.0069444
        k(   41) = (  -0.0836024  -0.9196265   0.9196265), wk =   0.0277778
        k(   42) = (   0.0000000  -0.8360241   0.8360241), wk =   0.0138889
        k(   43) = (  -1.0032289   0.0000000   0.0000000), wk =   0.0034722
        k(   44) = (   0.3344096   0.1672048   0.0000000), wk =   0.0277778
        k(   45) = (   0.4180121   0.2508072  -0.0836024), wk =   0.0555556
        k(   46) = (   0.5016145   0.3344096  -0.1672048), wk =   0.0555556
        k(   47) = (  -0.4180121  -0.5852169   0.7524217), wk =   0.0555556
        k(   48) = (  -0.3344096  -0.5016145   0.6688193), wk =   0.0277778
        k(   49) = (   0.5016145   0.1672048   0.0000000), wk =   0.0277778
        k(   50) = (   0.5852169   0.2508072  -0.0836024), wk =   0.0555556
        k(   51) = (  -0.3344096  -0.6688193   0.8360241), wk =   0.0555556
        k(   52) = (  -0.2508072  -0.5852169   0.7524217), wk =   0.0555556
        k(   53) = (  -0.1672048  -0.5016145   0.6688193), wk =   0.0555556
        k(   54) = (  -0.0836024  -0.4180121   0.5852169), wk =   0.0555556
        k(   55) = (   0.0000000  -0.3344096   0.5016145), wk =   0.0277778
        k(   56) = (   0.6688193   0.1672048   0.0000000), wk =   0.0277778
        k(   57) = (  -0.2508072  -0.7524217   0.9196265), wk =   0.0555556
        k(   58) = (  -0.1672048  -0.6688193   0.8360241), wk =   0.0555556
        k(   59) = (  -0.0836024  -0.5852169   0.7524217), wk =   0.0555556
        k(   60) = (   0.0000000  -0.5016145   0.6688193), wk =   0.0277778
        k(   61) = (  -0.1672048  -0.8360241   1.0032289), wk =   0.0277778
        k(   62) = (  -0.0836024  -0.7524217   0.9196265), wk =   0.0555556
        k(   63) = (   0.0000000  -0.6688193   0.8360241), wk =   0.0277778
        k(   64) = (  -1.0032289   0.1672048   0.0000000), wk =   0.0138889
        k(   65) = (  -0.3344096  -0.6688193   1.0032289), wk =   0.0277778
        k(   66) = (  -0.2508072  -0.5852169   0.9196265), wk =   0.0555556
        k(   67) = (  -0.1672048  -0.5016145   0.8360241), wk =   0.0277778
        k(   68) = (  -0.1672048  -0.6688193   1.0032289), wk =   0.0277778
        k(   69) = (  -0.0836024  -0.5852169   0.9196265), wk =   0.0555556
        k(   70) = (   0.0000000  -0.5016145   0.8360241), wk =   0.0277778
        k(   71) = (  -1.0032289   0.3344096   0.0000000), wk =   0.0138889
        k(   72) = (  -1.0032289   0.5016145   0.0000000), wk =   0.0069444

     Dense  grid:    95001 G-vectors     FFT dimensions: (  64,  64,  64)

     Smooth grid:    18197 G-vectors     FFT dimensions: (  40,  40,  40)

     Largest allocated arrays     est. size (Mb)     dimensions
        Kohn-Sham Wavefunctions         0.03 Mb     (    208,   10)
        NL pseudopotentials             0.11 Mb     (    208,   36)
        Each V/rho on FFT grid          0.38 Mb     (  24576)
        Each G-vector array             0.06 Mb     (   7917)
        G-vector shells                 0.01 Mb     (    670)
     Largest temporary arrays     est. size (Mb)     dimensions
        Each subspace H/S matrix        0.00 Mb     (  10,  10)
        Each <psi_i|beta_j> matrix      0.01 Mb     (     36,   10)
        Arrays for rho mixing           3.00 Mb     (  24576,   8)

     Initial potential from superposition of free atoms
     Check: negative starting charge=   -0.016053

     starting charge   19.99758, renormalised to   20.00000

     negative rho (up, down):  0.161E-01 0.000E+00
     Starting wfc are   13 randomized atomic wfcs

     total cpu time spent up to now is        2.2 secs

     per-process dynamical memory:    56.0 Mb

     Self-consistent Calculation

     iteration #  1     ecut=    50.00 Ry     beta=0.70
     CG style diagonalization
     ethr =  1.00E-02,  avg # of iterations =  2.0

     Threshold (ethr) on eigenvalues was too large:
     Diagonalizing with lowered threshold

     CG style diagonalization
     ethr =  3.80E-04,  avg # of iterations =  2.1

     negative rho (up, down):  0.149E-01 0.000E+00

     total cpu time spent up to now is        4.8 secs

     total energy              =    -207.00947912 Ry
     Harris-Foulkes estimate   =    -207.05832619 Ry
     estimated scf accuracy    <       0.07065707 Ry

     iteration #  2     ecut=    50.00 Ry     beta=0.70
     CG style diagonalization
     ethr =  3.53E-04,  avg # of iterations =  3.8

     negative rho (up, down):  0.154E-01 0.000E+00

     total cpu time spent up to now is        6.3 secs

     total energy              =    -207.02811005 Ry
     Harris-Foulkes estimate   =    -207.05585377 Ry
     estimated scf accuracy    <       0.05290665 Ry

     iteration #  3     ecut=    50.00 Ry     beta=0.70
     CG style diagonalization
     ethr =  2.65E-04,  avg # of iterations =  3.5

     negative rho (up, down):  0.154E-01 0.000E+00

     total cpu time spent up to now is        7.6 secs

     total energy              =    -207.03975346 Ry
     Harris-Foulkes estimate   =    -207.03978273 Ry
     estimated scf accuracy    <       0.00026924 Ry

     iteration #  4     ecut=    50.00 Ry     beta=0.70
     CG style diagonalization
     ethr =  1.35E-06,  avg # of iterations =  4.2

     negative rho (up, down):  0.155E-01 0.000E+00

     total cpu time spent up to now is        9.3 secs

     total energy              =    -207.03996373 Ry
     Harris-Foulkes estimate   =    -207.03996461 Ry
     estimated scf accuracy    <       0.00000578 Ry

     iteration #  5     ecut=    50.00 Ry     beta=0.70
     CG style diagonalization
     ethr =  2.89E-08,  avg # of iterations =  8.3

     negative rho (up, down):  0.155E-01 0.000E+00

     total cpu time spent up to now is       12.0 secs

     total energy              =    -207.03999246 Ry
     Harris-Foulkes estimate   =    -207.03999217 Ry
     estimated scf accuracy    <       0.00000263 Ry

     iteration #  6     ecut=    50.00 Ry     beta=0.70
     CG style diagonalization
     ethr =  1.31E-08,  avg # of iterations =  3.6

     negative rho (up, down):  0.155E-01 0.000E+00

     total cpu time spent up to now is       14.0 secs

     total energy              =    -207.03999167 Ry
     Harris-Foulkes estimate   =    -207.03999291 Ry
     estimated scf accuracy    <       0.00000319 Ry

     iteration #  7     ecut=    50.00 Ry     beta=0.70
     CG style diagonalization
     ethr =  1.31E-08,  avg # of iterations =  3.4

     negative rho (up, down):  0.156E-01 0.000E+00

     total cpu time spent up to now is       15.3 secs

     total energy              =    -207.03999141 Ry
     Harris-Foulkes estimate   =    -207.03999193 Ry
     estimated scf accuracy    <       0.00000125 Ry

     iteration #  8     ecut=    50.00 Ry     beta=0.70
     CG style diagonalization
     ethr =  6.27E-09,  avg # of iterations =  3.3

     negative rho (up, down):  0.156E-01 0.000E+00

     total cpu time spent up to now is       16.8 secs

     total energy              =    -207.03999132 Ry
     Harris-Foulkes estimate   =    -207.03999154 Ry
     estimated scf accuracy    <       0.00000047 Ry

     iteration #  9     ecut=    50.00 Ry     beta=0.70
     CG style diagonalization
     ethr =  2.35E-09,  avg # of iterations =  4.5

     negative rho (up, down):  0.157E-01 0.000E+00

     total cpu time spent up to now is       18.4 secs

     total energy              =    -207.03999147 Ry
     Harris-Foulkes estimate   =    -207.03999150 Ry
     estimated scf accuracy    <       0.00000008 Ry

     iteration # 10     ecut=    50.00 Ry     beta=0.70
     CG style diagonalization
     ethr =  3.76E-10,  avg # of iterations =  5.1

     negative rho (up, down):  0.157E-01 0.000E+00

     total cpu time spent up to now is       20.2 secs

     total energy              =    -207.03999151 Ry
     Harris-Foulkes estimate   =    -207.03999153 Ry
     estimated scf accuracy    <       0.00000004 Ry

     iteration # 11     ecut=    50.00 Ry     beta=0.70
     CG style diagonalization
     ethr =  1.89E-10,  avg # of iterations =  4.4

     negative rho (up, down):  0.157E-01 0.000E+00

     total cpu time spent up to now is       21.9 secs

     total energy              =    -207.03999152 Ry
     Harris-Foulkes estimate   =    -207.03999152 Ry
     estimated scf accuracy    <          3.4E-09 Ry

     iteration # 12     ecut=    50.00 Ry     beta=0.70
     CG style diagonalization
     ethr =  1.70E-11,  avg # of iterations =  6.9

     negative rho (up, down):  0.157E-01 0.000E+00

     total cpu time spent up to now is       24.8 secs

     total energy              =    -207.03999153 Ry
     Harris-Foulkes estimate   =    -207.03999153 Ry
     estimated scf accuracy    <          6.5E-09 Ry

     iteration # 13     ecut=    50.00 Ry     beta=0.70
     CG style diagonalization
     ethr =  1.70E-11,  avg # of iterations =  3.2

     negative rho (up, down):  0.157E-01 0.000E+00

     total cpu time spent up to now is       26.3 secs

     total energy              =    -207.03999153 Ry
     Harris-Foulkes estimate   =    -207.03999153 Ry
     estimated scf accuracy    <          3.4E-09 Ry

     iteration # 14     ecut=    50.00 Ry     beta=0.70
     CG style diagonalization
     ethr =  1.70E-11,  avg # of iterations =  3.0

     negative rho (up, down):  0.157E-01 0.000E+00

     total cpu time spent up to now is       27.9 secs

     total energy              =    -207.03999153 Ry
     Harris-Foulkes estimate   =    -207.03999153 Ry
     estimated scf accuracy    <          5.0E-10 Ry

     iteration # 15     ecut=    50.00 Ry     beta=0.70
     CG style diagonalization
     ethr =  2.50E-12,  avg # of iterations =  5.4

     negative rho (up, down):  0.157E-01 0.000E+00

     total cpu time spent up to now is       29.6 secs

     End of self-consistent calculation

          k = 0.0000 0.0000 0.0000 (  2277 PWs)   bands (ev):

    -8.5640  -8.5640  -8.5640  -8.5621  -8.5621  -5.5010   1.8840   6.2887
     6.2887   6.2887

          k = 0.0836 0.0836-0.0836 (  2277 PWs)   bands (ev):

    -8.5644  -8.5644  -8.5637  -8.5611  -8.5611  -5.4466   1.6935   6.3073
     6.3073   6.4239

          k = 0.1672 0.1672-0.1672 (  2274 PWs)   bands (ev):

    -8.5690  -8.5690  -8.5630  -8.5548  -8.5548  -5.2889   1.2061   6.3633
     6.3633   6.7499

          k = 0.2508 0.2508-0.2508 (  2277 PWs)   bands (ev):

    -8.5755  -8.5755  -8.5622  -8.5460  -8.5460  -5.0467   0.5817   6.4539
     6.4539   7.1331

          k = 0.3344 0.3344-0.3344 (  2265 PWs)   bands (ev):

    -8.5820  -8.5820  -8.5616  -8.5372  -8.5372  -4.7608  -0.0351   6.5663
     6.5663   7.5052

          k = 0.4180 0.4180-0.4180 (  2283 PWs)   bands (ev):

    -8.5868  -8.5868  -8.5613  -8.5308  -8.5308  -4.5090  -0.5061   6.6682
     6.6682   7.8726

          k =-0.5016-0.5016 0.5016 (  2276 PWs)   bands (ev):

    -8.5885  -8.5885  -8.5612  -8.5284  -8.5284  -4.4035  -0.6878   6.7111
     6.7111   8.2149

          k = 0.1672 0.0000 0.0000 (  2277 PWs)   bands (ev):

    -8.5667  -8.5653  -8.5609  -8.5609  -8.5608  -5.4280   1.6496   6.1818
     6.1818   6.7036

          k = 0.2508 0.0836-0.0836 (  2270 PWs)   bands (ev):

    -8.5729  -8.5655  -8.5633  -8.5568  -8.5539  -5.3035   1.3037   6.1074
     6.1511   7.0732

          k = 0.3344 0.1672-0.1672 (  2274 PWs)   bands (ev):

    -8.5808  -8.5685  -8.5641  -8.5507  -8.5449  -5.0874   0.7663   6.1015
     6.2187   7.3709

          k = 0.4180 0.2508-0.2508 (  2285 PWs)   bands (ev):

    -8.5883  -8.5749  -8.5622  -8.5435  -8.5361  -4.8125   0.1750   6.1722
     6.3064   7.5027

          k = 0.5016 0.3344-0.3344 (  2286 PWs)   bands (ev):

    -8.5934  -8.5810  -8.5606  -8.5368  -8.5299  -4.5426  -0.3332   6.3139
     6.3258   7.5169

          k =-0.4180-0.5852 0.5852 (  2303 PWs)   bands (ev):

    -8.5949  -8.5852  -8.5598  -8.5322  -8.5279  -4.3802  -0.6135   6.2126
     6.4991   7.6183

          k =-0.3344-0.5016 0.5016 (  2295 PWs)   bands (ev):

    -8.5923  -8.5862  -8.5597  -8.5312  -8.5306  -4.4159  -0.5576   6.0344
     6.6709   7.8162

          k =-0.2508-0.4180 0.4180 (  2284 PWs)   bands (ev):

    -8.5863  -8.5839  -8.5603  -8.5374  -8.5341  -4.6277  -0.1917   5.8943
     6.7579   7.8212

          k =-0.1672-0.3344 0.3344 (  2289 PWs)   bands (ev):

    -8.5790  -8.5786  -8.5615  -8.5462  -8.5401  -4.9092   0.3526   5.8438
     6.7289   7.5513

          k =-0.0836-0.2508 0.2508 (  2268 PWs)   bands (ev):

    -8.5728  -8.5710  -8.5629  -8.5548  -8.5479  -5.1697   0.9346   5.9008
     6.6140   7.1613

          k = 0.0000-0.1672 0.1672 (  2273 PWs)   bands (ev):

    -8.5672  -8.5658  -8.5638  -8.5605  -8.5554  -5.3573   1.4242   6.0680
     6.4609   6.7426

          k = 0.3344 0.0000 0.0000 (  2277 PWs)   bands (ev):

    -8.5832  -8.5689  -8.5570  -8.5525  -8.5525  -5.2122   1.1829   5.9007
     5.9007   7.3605

          k = 0.4180 0.0836-0.0836 (  2269 PWs)   bands (ev):

    -8.5956  -8.5697  -8.5590  -8.5471  -8.5438  -5.0267   0.8525   5.7778
     5.8057   7.2104

          k = 0.5016 0.1672-0.1672 (  2296 PWs)   bands (ev):

    -8.6064  -8.5677  -8.5642  -8.5423  -8.5346  -4.7746   0.3932   5.7589
     5.7874   6.8090

          k = 0.5852 0.2508-0.2508 (  2292 PWs)   bands (ev):

    -8.6130  -8.5703  -8.5634  -8.5391  -8.5283  -4.5087  -0.0711   5.6490
     5.8511   6.6027

          k =-0.3344-0.6688 0.6688 (  2293 PWs)   bands (ev):

    -8.6141  -8.5759  -8.5586  -8.5376  -8.5264  -4.3146  -0.4000   5.3554
     6.0468   6.7479

          k =-0.2508-0.5852 0.5852 (  2291 PWs)   bands (ev):

    -8.6094  -8.5797  -8.5556  -8.5371  -8.5292  -4.2857  -0.4719   5.1167
     6.3165   7.0855

          k =-0.1672-0.5016 0.5016 (  2287 PWs)   bands (ev):

    -8.6002  -8.5808  -8.5557  -8.5372  -8.5358  -4.4396  -0.2671   5.0339
     6.5958   7.5101

          k =-0.0836-0.4180 0.4180 (  2292 PWs)   bands (ev):

    -8.5888  -8.5794  -8.5583  -8.5440  -8.5385  -4.6964   0.1151   5.1411
     6.7802   7.8062

          k = 0.0000-0.3344 0.3344 (  2277 PWs)   bands (ev):

    -8.5781  -8.5762  -8.5613  -8.5512  -8.5420  -4.9608   0.5480   5.4416
     6.7812   7.6249

          k = 0.5016 0.0000 0.0000 (  2293 PWs)   bands (ev):

    -8.6147  -8.5738  -8.5520  -8.5408  -8.5408  -4.8742   0.7857   5.5410
     5.5410   6.5251

          k = 0.5852 0.0836-0.0836 (  2293 PWs)   bands (ev):

    -8.6315  -8.5745  -8.5530  -8.5354  -8.5328  -4.6552   0.5566   5.3811
     5.4220   5.8648

          k = 0.6688 0.1672-0.1672 (  2295 PWs)   bands (ev):

    -8.6415  -8.5715  -8.5577  -8.5328  -8.5262  -4.4142   0.2305   4.9517
     5.4353   5.7640

          k =-0.2508-0.7524 0.7524 (  2302 PWs)   bands (ev):

    -8.6428  -8.5652  -8.5636  -8.5337  -8.5240  -4.2199  -0.0774   4.5121
     5.5823   5.9975

          k =-0.1672-0.6688 0.6688 (  2294 PWs)   bands (ev):

    -8.6353  -8.5694  -8.5570  -8.5378  -8.5265  -4.1503  -0.2532   4.2802
     5.8500   6.3697

          k =-0.0836-0.5852 0.5852 (  2293 PWs)   bands (ev):

    -8.6214  -8.5743  -8.5498  -8.5432  -8.5322  -4.2417  -0.2476   4.3052
     6.2024   6.8528

          k = 0.0000-0.5016 0.5016 (  2281 PWs)   bands (ev):

    -8.6044  -8.5776  -8.5526  -8.5411  -8.5389  -4.4509  -0.1010   4.6010
     6.5606   7.4084

          k = 0.6688 0.0000 0.0000 (  2285 PWs)   bands (ev):

    -8.6548  -8.5787  -8.5469  -8.5286  -8.5286  -4.4775   0.6014   4.9539
     5.2065   5.2065

          k = 0.7524 0.0836-0.0836 (  2296 PWs)   bands (ev):

    -8.6696  -8.5787  -8.5475  -8.5249  -8.5232  -4.2808   0.5028   4.2572
     5.1335   5.2086

          k =-0.1672-0.8360 0.8360 (  2296 PWs)   bands (ev):

    -8.6724  -8.5743  -8.5520  -8.5254  -8.5208  -4.1185   0.2991   3.7950
     5.2103   5.4151

          k =-0.0836-0.7524 0.7524 (  2290 PWs)   bands (ev):

    -8.6630  -8.5663  -8.5585  -8.5301  -8.5227  -4.0459   0.0646   3.6396
     5.4319   5.7733

          k = 0.0000-0.6688 0.6688 (  2301 PWs)   bands (ev):

    -8.6444  -8.5663  -8.5564  -8.5377  -8.5273  -4.0927  -0.1317   3.8178
     5.7784   6.2571

          k = 0.8360 0.0000 0.0000 (  2301 PWs)   bands (ev):

    -8.6888  -8.5823  -8.5431  -8.5195  -8.5195  -4.1425   0.6627   3.6526
     4.9757   4.9757

          k =-0.0836-0.9196 0.9196 (  2289 PWs)   bands (ev):

    -8.6942  -8.5811  -8.5443  -8.5186  -8.5176  -4.0394   0.6338   3.2880
     4.9744   5.0311

          k = 0.0000-0.8360 0.8360 (  2284 PWs)   bands (ev):

    -8.6847  -8.5754  -8.5496  -8.5225  -8.5190  -4.0038   0.4022   3.2833
     5.1302   5.3161

          k =-1.0032 0.0000 0.0000 (  2272 PWs)   bands (ev):

    -8.7021  -8.5836  -8.5418  -8.5161  -8.5161  -4.0092   0.7779   3.0952
     4.8939   4.8939

          k = 0.3344 0.1672 0.0000 (  2278 PWs)   bands (ev):

    -8.5813  -8.5662  -8.5642  -8.5529  -8.5472  -5.1483   0.9720   5.7715
     6.2784   7.3810

          k = 0.4180 0.2508-0.0836 (  2282 PWs)   bands (ev):

    -8.5904  -8.5689  -8.5644  -8.5471  -8.5398  -4.9123   0.5065   5.5380
     6.4266   7.4242

          k = 0.5016 0.3344-0.1672 (  2289 PWs)   bands (ev):

    -8.5985  -8.5748  -8.5611  -8.5414  -8.5335  -4.6380   0.0135   5.4485
     6.4133   7.3480

          k =-0.4180-0.5852 0.7524 (  2285 PWs)   bands (ev):

    -8.6038  -8.5796  -8.5580  -8.5375  -8.5293  -4.4009  -0.3777   5.4882
     6.1864   7.4008

          k =-0.3344-0.5016 0.6688 (  2296 PWs)   bands (ev):

    -8.6057  -8.5815  -8.5568  -8.5362  -8.5278  -4.3032  -0.5307   5.5551
     6.0289   7.4550

          k = 0.5016 0.1672 0.0000 (  2292 PWs)   bands (ev):

    -8.6102  -8.5705  -8.5592  -8.5410  -8.5378  -4.8224   0.5872   5.3968
     5.8897   6.6931

          k = 0.5852 0.2508-0.0836 (  2291 PWs)   bands (ev):

    -8.6215  -8.5680  -8.5632  -8.5368  -8.5316  -4.5717   0.2341   5.1481
     5.7153   6.5089

          k =-0.3344-0.6688 0.8360 (  2286 PWs)   bands (ev):

    -8.6274  -8.5688  -8.5621  -8.5368  -8.5269  -4.3365  -0.1073   5.0036
     5.3547   6.7523

          k =-0.2508-0.5852 0.7524 (  2292 PWs)   bands (ev):

    -8.6271  -8.5732  -8.5555  -8.5399  -8.5256  -4.2024  -0.3165   4.7854
     5.3569   7.0700

          k =-0.1672-0.5016 0.6688 (  2287 PWs)   bands (ev):

    -8.6214  -8.5753  -8.5525  -8.5420  -8.5282  -4.2361  -0.3094   4.6545
     5.6290   7.3339

          k =-0.0836-0.4180 0.5852 (  2288 PWs)   bands (ev):

    -8.6119  -8.5746  -8.5569  -8.5395  -8.5338  -4.4205  -0.1061   4.7315
     6.0340   7.4157

          k = 0.0000-0.3344 0.5016 (  2277 PWs)   bands (ev):

    -8.6010  -8.5717  -8.5619  -8.5414  -8.5375  -4.6727   0.1964   5.0356
     6.4121   7.3519

          k = 0.6688 0.1672 0.0000 (  2288 PWs)   bands (ev):

    -8.6480  -8.5749  -8.5530  -8.5291  -8.5288  -4.4429   0.4133   4.9540
     5.0520   5.7513

          k =-0.2508-0.7524 0.9196 (  2290 PWs)   bands (ev):

    -8.6559  -8.5712  -8.5567  -8.5296  -8.5235  -4.2366   0.2011   4.3816
     4.8771   6.0772

          k =-0.1672-0.6688 0.8360 (  2289 PWs)   bands (ev):

    -8.6542  -8.5648  -8.5611  -8.5344  -8.5218  -4.1014  -0.0053   4.0354
     4.9092   6.4864

          k =-0.0836-0.5852 0.7524 (  2285 PWs)   bands (ev):

    -8.6439  -8.5678  -8.5541  -8.5419  -8.5242  -4.0926  -0.1355   3.9748
     5.1356   6.9205

          k = 0.0000-0.5016 0.6688 (  2293 PWs)   bands (ev):

    -8.6283  -8.5721  -8.5502  -8.5449  -8.5293  -4.2157  -0.1638   4.2158
     5.5308   7.2908

          k =-0.1672-0.8360 1.0032 (  2290 PWs)   bands (ev):

    -8.6806  -8.5781  -8.5479  -8.5231  -8.5195  -4.1267   0.4771   3.7231
     4.8156   5.4727

          k =-0.0836-0.7524 0.9196 (  2289 PWs)   bands (ev):

    -8.6786  -8.5731  -8.5521  -8.5269  -8.5179  -4.0267   0.3332   3.4639
     4.6999   5.8997

          k = 0.0000-0.6688 0.8360 (  2284 PWs)   bands (ev):

    -8.6650  -8.5649  -8.5586  -8.5341  -8.5199  -4.0139   0.1037   3.5525
     4.8138   6.4009

          k =-1.0032 0.1672 0.0000 (  2268 PWs)   bands (ev):

    -8.6934  -8.5793  -8.5459  -8.5209  -8.5161  -4.0024   0.5846   3.1895
     4.7321   5.3855

          k =-0.3344-0.6688 1.0032 (  2286 PWs)   bands (ev):

    -8.6334  -8.5653  -8.5645  -8.5343  -8.5291  -4.3469   0.0609   4.6695
     5.1684   6.8518

          k =-0.2508-0.5852 0.9196 (  2280 PWs)   bands (ev):

    -8.6409  -8.5680  -8.5577  -8.5399  -8.5241  -4.1642  -0.0821   4.4000
     4.7289   7.2177

          k =-0.1672-0.5016 0.8360 (  2284 PWs)   bands (ev):

    -8.6434  -8.5692  -8.5504  -8.5468  -8.5221  -4.0924  -0.1393   4.3305
     4.5526   7.3765

          k =-0.1672-0.6688 1.0032 (  2284 PWs)   bands (ev):

    -8.6624  -8.5667  -8.5590  -8.5335  -8.5196  -4.0869   0.1530   3.9664
     4.4217   6.6150

          k =-0.0836-0.5852 0.9196 (  2284 PWs)   bands (ev):

    -8.6607  -8.5629  -8.5582  -8.5417  -8.5179  -4.0134   0.0814   3.8016
     4.2523   7.1121

          k = 0.0000-0.5016 0.8360 (  2281 PWs)   bands (ev):

    -8.6527  -8.5660  -8.5506  -8.5485  -8.5198  -4.0427  -0.0076   3.9577
     4.3579   7.3826

          k =-1.0032 0.3344 0.0000 (  2284 PWs)   bands (ev):

    -8.6740  -8.5675  -8.5560  -8.5338  -8.5161  -3.9883   0.2620   3.4600
     4.3346   6.5360

          k =-1.0032 0.5016 0.0000 (  2268 PWs)   bands (ev):

    -8.6627  -8.5626  -8.5509  -8.5509  -8.5161  -3.9810   0.1223   3.8674
     3.8674   7.4064

!    total energy              =    -207.03999153 Ry
     Harris-Foulkes estimate   =    -207.03999153 Ry
     estimated scf accuracy    <          4.4E-11 Ry

     The total energy is the sum of the following terms:

     one-electron contribution =     -39.04818984 Ry
     hartree contribution      =      32.43439488 Ry
     xc contribution           =     -92.27440654 Ry
     ewald contribution        =    -108.15179002 Ry

     convergence has been achieved in  15 iterations

     Forces acting on atoms (Ry/au):


     negative rho (up, down):  0.157E-01 0.000E+00
     atom    1 type  1   force =     0.00000000    0.00000000    0.00000000
     atom    2 type  2   force =     0.00000000    0.00000000    0.00000000

     Total force =     0.000000     Total SCF correction =     0.000000


     entering subroutine stress ...


     negative rho (up, down):  0.157E-01 0.000E+00
          total   stress  (Ry/bohr**3)                   (kbar)     P=   -0.05
  -0.00000036   0.00000000   0.00000000         -0.05      0.00      0.00
   0.00000000  -0.00000036   0.00000000          0.00     -0.05      0.00
   0.00000000   0.00000000  -0.00000036          0.00      0.00     -0.05


     Writing output data file PbSe.save
 
     init_run     :      1.14s CPU      1.37s WALL (       1 calls)
     electrons    :     25.88s CPU     27.40s WALL (       1 calls)
     forces       :      0.18s CPU      0.20s WALL (       1 calls)
     stress       :      0.59s CPU      0.59s WALL (       1 calls)

     Called by init_run:
     wfcinit      :      0.26s CPU      0.30s WALL (       1 calls)
     potinit      :      0.18s CPU      0.22s WALL (       1 calls)

     Called by electrons:
     c_bands      :     19.29s CPU     20.04s WALL (      16 calls)
     sum_band     :      4.70s CPU      4.81s WALL (      16 calls)
     v_of_rho     :      0.39s CPU      0.39s WALL (      16 calls)
     newd         :      1.03s CPU      1.02s WALL (      16 calls)
     mix_rho      :      0.06s CPU      0.07s WALL (      16 calls)

     Called by c_bands:
     init_us_2    :      0.13s CPU      0.14s WALL (    1260 calls)
     ccgdiagg     :     13.18s CPU     13.75s WALL (     576 calls)
     wfcrot       :      4.93s CPU      5.08s WALL (     540 calls)

     Called by *cgdiagg:
     h_psi        :     14.23s CPU     15.02s WALL (   19474 calls)
     s_psi        :      0.58s CPU      0.74s WALL (   38408 calls)
     cdiaghg      :      0.05s CPU      0.05s WALL (     540 calls)

     Called by h_psi:
     add_vuspsi   :      0.32s CPU      0.39s WALL (   19474 calls)

     General routines
     calbec       :      1.92s CPU      1.85s WALL (   39056 calls)
     fft          :      0.45s CPU      0.45s WALL (     281 calls)
     ffts         :      0.00s CPU      0.01s WALL (      32 calls)
     fftw         :     13.65s CPU     14.37s WALL (   54644 calls)
     interpolate  :      0.08s CPU      0.07s WALL (      32 calls)
     davcio       :      0.02s CPU      0.09s WALL (    1836 calls)
 
     Parallel routines
     fft_scatter  :      8.90s CPU      9.47s WALL (   54957 calls)
 
     PWSCF        :    28.32s CPU        37.28s WALL

 
   This run was terminated on:  12:41: 0   9Jul2014            

=------------------------------------------------------------------------------=
   JOB DONE.
=------------------------------------------------------------------------------=
TACC: Shutting down parallel environment.
TACC: Shutdown complete. Exiting.
