TACC: Starting up job 2055390
TACC: Setting up parallel environment for MVAPICH ssh-based mpirun.
TACC: Setup complete. Running job script.
TACC: starting parallel tasks...

     Program PHONON v.5.0.1 starts on  9Jul2014 at 12:41: 4 

     This program is part of the open-source Quantum ESPRESSO suite
     for quantum simulation of materials; please cite
         "P. Giannozzi et al., J. Phys.:Condens. Matter 21 395502 (2009);
          URL http://www.quantum-espresso.org", 
     in publications or presentations arising from this work. More details at
     http://www.quantum-espresso.org/quote.php

     Parallel version (MPI), running on    24 processors
     K-points division:     npool     =    2
     R & G space division:  proc/pool =   12

     Ultrasoft (Vanderbilt) Pseudopotentials

   Info: using nr1, nr2, nr3 values from input

   Info: using nr1s, nr2s, nr3s values from input

     IMPORTANT: XC functional enforced from input :
     Exchange-correlation      = PBESOL ( 1 410 8 0)
     EXX-fraction              =        0.00
     Any further DFT definition will be discarded
     Please, verify this is what you really want

 
     Parallelization info
     --------------------
     sticks:   dense  smooth     PW     G-vecs:    dense   smooth      PW
     Min         228      77     22                 7916     1511     240
     Max         230      78     23                 7918     1524     243
     Sum        2749     925    265                95001    18197    2891
 

     negative rho (up, down):  0.157E-01 0.000E+00


     Dynamical matrices for ( 6, 6, 6)  uniform grid of q-points
     (  16q-points):
       N         xq(1)         xq(2)         xq(3) 
       1   0.000000000   0.000000000   0.000000000
       2   0.167204824   0.167204824  -0.167204824
       3   0.334409648   0.334409648  -0.334409648
       4  -0.501614472  -0.501614472   0.501614472
       5   0.334409648   0.000000000   0.000000000
       6   0.501614472   0.167204824  -0.167204824
       7  -0.334409648  -0.668819296   0.668819296
       8  -0.167204824  -0.501614472   0.501614472
       9   0.000000000  -0.334409648   0.334409648
      10   0.668819296   0.000000000   0.000000000
      11  -0.167204824  -0.836024120   0.836024120
      12   0.000000000  -0.668819296   0.668819296
      13  -1.003228945   0.000000000   0.000000000
      14  -0.334409648  -0.668819296   1.003228945
      15  -0.167204824  -0.501614472   0.836024120
      16  -1.003228945   0.334409648   0.000000000

     Calculation of q =    0.0000000   0.0000000   0.0000000

                                                                                

     bravais-lattice index     =            0
     lattice parameter (alat)  =      11.5651  a.u.
     unit-cell volume          =     382.9929 (a.u.)^3
     number of atoms/cell      =            2
     number of atomic types    =            2
     kinetic-energy cut-off    =      50.0000  Ry
     charge density cut-off    =     600.0000  Ry
     convergence threshold     =      1.0E-16
     beta                      =       0.7000
     number of iterations used =            4
     Exchange-correlation      = PBESOL ( 1 410 8 0)
     EXX-fraction              =        0.00


     celldm(1)=   11.56512  celldm(2)=    0.00000  celldm(3)=    0.00000
     celldm(4)=    0.00000  celldm(5)=    0.00000  celldm(6)=    0.00000

     crystal axes: (cart. coord. in units of alat)
               a(1) = (  0.0000  0.4984  0.4984 )  
               a(2) = (  0.4984  0.0000  0.4984 )  
               a(3) = (  0.4984  0.4984  0.0000 )  

     reciprocal axes: (cart. coord. in units 2 pi/alat)
               b(1) = ( -1.0032  1.0032  1.0032 )  
               b(2) = (  1.0032 -1.0032  1.0032 )  
               b(3) = (  1.0032  1.0032 -1.0032 )  


     Atoms inside the unit cell: 

   Cartesian axes

     site n.  atom      mass           positions (alat units)
        1        Pb 207.2000   tau( 1) = (    0.00000    0.00000    0.00000  )
        2        Se  78.9600   tau( 2) = (    0.49839    0.49839    0.49839  )

     Computing dynamical matrix for 
                    q = (   0.0000000   0.0000000   0.0000000 )
 
     49 Sym.Ops. (with q -> -q+G )


     G cutoff = 2032.7880  (   7917 G-vectors)     FFT grid: ( 64, 64, 64)
     G cutoff =  677.5960  (   1515 G-vectors)  smooth grid: ( 40, 40, 40)
     number of k points=    72

     PseudoPot. # 1 for Pb read from file:
     /work/02599/asmiller/pseudo/gbrv/pbe_GBRV/pb_pbe_v1.uspp.F.UPF
     MD5 check sum: a5f44a0c8587cfbb5a05efeead6b9227
     Pseudo is Ultrasoft + core correction, Zval = 14.0
     Generated by new atomic code, or converted to UPF format
     Using radial grid of  899 points,  6 beta functions with: 
                l(1) =   0
                l(2) =   0
                l(3) =   1
                l(4) =   1
                l(5) =   2
                l(6) =   2
     Q(r) pseudized with  6 coefficients,  rinner =    1.000   1.000   1.000
                                                       1.000   1.000

     PseudoPot. # 2 for Se read from file:
     /work/02599/asmiller/pseudo/gbrv/pbe_GBRV/se_pbe_v1.uspp.F.UPF
     MD5 check sum: 7043f8c3d783c440dfcc8575b58f7dd3
     Pseudo is Ultrasoft + core correction, Zval =  6.0
     Generated by new atomic code, or converted to UPF format
     Using radial grid of  877 points,  6 beta functions with: 
                l(1) =   0
                l(2) =   0
                l(3) =   1
                l(4) =   1
                l(5) =   2
                l(6) =   2
     Q(r) pseudized with  8 coefficients,  rinner =    1.300   1.300   1.300
                                                       1.300   1.300


     Electric field:
     Dielectric constant
     Born effective charges in two ways 


     Atomic displacements:
     There are   2 irreducible representations

     Representation     1      3 modes -T_1u G_15  G_4- To be done

     Representation     2      3 modes -T_1u G_15  G_4- To be done



     Alpha used in Ewald sum =   2.8000

     negative rho (up, down):  0.157E-01 0.000E+00
     PHONON       :     5.18s CPU         6.42s WALL


     Electric Fields Calculation

      iter #   1 total cpu time :    34.2 secs   av.it.:   7.0
      thresh= 0.100E-01 alpha_mix =  0.700 |ddv_scf|^2 =  0.430E-07

      iter #   2 total cpu time :    48.8 secs   av.it.:  16.9
      thresh= 0.207E-04 alpha_mix =  0.700 |ddv_scf|^2 =  0.103E-07

      iter #   3 total cpu time :    63.2 secs   av.it.:  17.0
      thresh= 0.102E-04 alpha_mix =  0.700 |ddv_scf|^2 =  0.238E-09

      iter #   4 total cpu time :    77.3 secs   av.it.:  17.0
      thresh= 0.154E-05 alpha_mix =  0.700 |ddv_scf|^2 =  0.147E-10

      iter #   5 total cpu time :    91.1 secs   av.it.:  16.4
      thresh= 0.384E-06 alpha_mix =  0.700 |ddv_scf|^2 =  0.144E-12

      iter #   6 total cpu time :   105.3 secs   av.it.:  16.9
      thresh= 0.379E-07 alpha_mix =  0.700 |ddv_scf|^2 =  0.263E-15

      iter #   7 total cpu time :   119.5 secs   av.it.:  17.2
      thresh= 0.162E-08 alpha_mix =  0.700 |ddv_scf|^2 =  0.156E-16

     End of electric fields calculation

          Dielectric constant in cartesian axis 

          (      43.162056724       0.000000000       0.000000000 )
          (       0.000000000      43.162056724       0.000000000 )
          (       0.000000000       0.000000000      43.162056724 )

          Effective charges (d Force / dE) in cartesian axis

           atom      1   Pb 
      Ex  (        3.94285        0.00000        0.00000 )
      Ey  (        0.00000        3.94285        0.00000 )
      Ez  (        0.00000        0.00000        3.94285 )
           atom      2   Se 
      Ex  (       -4.07100        0.00000        0.00000 )
      Ey  (        0.00000       -4.07100        0.00000 )
      Ez  (        0.00000        0.00000       -4.07100 )


     Representation #  1 modes #   1  2  3

     Self-consistent Calculation

      iter #   1 total cpu time :   131.9 secs   av.it.:   5.2
      thresh= 0.100E-01 alpha_mix =  0.700 |ddv_scf|^2 =  0.194E-07

      iter #   2 total cpu time :   146.3 secs   av.it.:  17.3
      thresh= 0.139E-04 alpha_mix =  0.700 |ddv_scf|^2 =  0.258E-08

      iter #   3 total cpu time :   161.1 secs   av.it.:  18.1
      thresh= 0.508E-05 alpha_mix =  0.700 |ddv_scf|^2 =  0.201E-09

      iter #   4 total cpu time :   176.2 secs   av.it.:  18.1
      thresh= 0.142E-05 alpha_mix =  0.700 |ddv_scf|^2 =  0.623E-11

      iter #   5 total cpu time :   191.0 secs   av.it.:  18.1
      thresh= 0.250E-06 alpha_mix =  0.700 |ddv_scf|^2 =  0.648E-13

      iter #   6 total cpu time :   205.6 secs   av.it.:  18.0
      thresh= 0.254E-07 alpha_mix =  0.700 |ddv_scf|^2 =  0.455E-15

      iter #   7 total cpu time :   220.1 secs   av.it.:  17.8
      thresh= 0.213E-08 alpha_mix =  0.700 |ddv_scf|^2 =  0.105E-16

     End of self-consistent calculation

     Convergence has been achieved 


     Representation #  2 modes #   4  5  6

     Self-consistent Calculation

      iter #   1 total cpu time :   230.3 secs   av.it.:   8.0
      thresh= 0.100E-01 alpha_mix =  0.700 |ddv_scf|^2 =  0.428E-06

      iter #   2 total cpu time :   245.4 secs   av.it.:  18.6
      thresh= 0.654E-04 alpha_mix =  0.700 |ddv_scf|^2 =  0.145E-06

      iter #   3 total cpu time :   260.2 secs   av.it.:  18.0
      thresh= 0.380E-04 alpha_mix =  0.700 |ddv_scf|^2 =  0.144E-09

      iter #   4 total cpu time :   275.4 secs   av.it.:  19.1
      thresh= 0.120E-05 alpha_mix =  0.700 |ddv_scf|^2 =  0.786E-11

      iter #   5 total cpu time :   290.7 secs   av.it.:  19.0
      thresh= 0.280E-06 alpha_mix =  0.700 |ddv_scf|^2 =  0.447E-12

      iter #   6 total cpu time :   304.9 secs   av.it.:  17.4
      thresh= 0.669E-07 alpha_mix =  0.700 |ddv_scf|^2 =  0.157E-14

      iter #   7 total cpu time :   319.4 secs   av.it.:  17.6
      thresh= 0.396E-08 alpha_mix =  0.700 |ddv_scf|^2 =  0.103E-15

      iter #   8 total cpu time :   333.5 secs   av.it.:  17.3
      thresh= 0.101E-08 alpha_mix =  0.700 |ddv_scf|^2 =  0.600E-18

     End of self-consistent calculation

     Convergence has been achieved 
 
     Number of q in the star =    1
     List of q in the star:
          1   0.000000000   0.000000000   0.000000000

          Dielectric constant in cartesian axis 

          (      43.162056724       0.000000000       0.000000000 )
          (       0.000000000      43.162056724       0.000000000 )
          (       0.000000000       0.000000000      43.162056724 )

          Effective charges (d Force / dE) in cartesian axis

           atom      1   Pb 
      Ex  (        3.94285        0.00000        0.00000 )
      Ey  (        0.00000        3.94285        0.00000 )
      Ez  (        0.00000        0.00000        3.94285 )
           atom      2   Se 
      Ex  (       -4.07100        0.00000        0.00000 )
      Ey  (        0.00000       -4.07100        0.00000 )
      Ez  (        0.00000        0.00000       -4.07100 )

          Effective charges (d P / du) in cartesian axis 

           atom      1   Pb 
      Px  (        4.09731        0.00000        0.00000 )
      Py  (        0.00000        4.09731        0.00000 )
      Pz  (        0.00000        0.00000        4.09731 )
           atom      2   Se 
      Px  (       -4.09721        0.00000        0.00000 )
      Py  (        0.00000       -4.09721        0.00000 )
      Pz  (        0.00000        0.00000       -4.09721 )

     Diagonalizing the dynamical matrix

     q = (    0.000000000   0.000000000   0.000000000 ) 

 **************************************************************************
     omega( 1) =      -0.206850 [THz] =      -6.899775 [cm-1]
     omega( 2) =      -0.206850 [THz] =      -6.899775 [cm-1]
     omega( 3) =      -0.206850 [THz] =      -6.899775 [cm-1]
     omega( 4) =       1.419648 [THz] =      47.354374 [cm-1]
     omega( 5) =       1.419648 [THz] =      47.354374 [cm-1]
     omega( 6) =       1.419648 [THz] =      47.354374 [cm-1]
 **************************************************************************

     Mode symmetry, O_h (m-3m)  point group:

     omega(  1 -  3) =         -6.9  [cm-1]   --> T_1u G_15  G_4- I  
     omega(  4 -  6) =         47.4  [cm-1]   --> T_1u G_15  G_4- I  

 **************************************************************************

     Calculation of q =    0.1672048   0.1672048  -0.1672048
 
     Parallelization info
     --------------------
     sticks:   dense  smooth     PW     G-vecs:    dense   smooth      PW
     Min         228      77     23                 7916     1508     259
     Max         230      78     24                 7918     1527     261
     Sum        2749     925    283                95001    18197    3119
 


     bravais-lattice index     =            0
     lattice parameter (alat)  =      11.5651  a.u.
     unit-cell volume          =     382.9929 (a.u.)^3
     number of atoms/cell      =            2
     number of atomic types    =            2
     number of electrons       =        20.00
     number of Kohn-Sham states=           10
     kinetic-energy cutoff     =      50.0000  Ry
     charge density cutoff     =     600.0000  Ry
     Exchange-correlation      = PBESOL ( 1 410 8 0)
     EXX-fraction              =        0.00

     celldm(1)=  11.565124  celldm(2)=   0.000000  celldm(3)=   0.000000
     celldm(4)=   0.000000  celldm(5)=   0.000000  celldm(6)=   0.000000

     crystal axes: (cart. coord. in units of alat)
               a(1) = (   0.000000   0.498391   0.498391 )  
               a(2) = (   0.498391   0.000000   0.498391 )  
               a(3) = (   0.498391   0.498391   0.000000 )  

     reciprocal axes: (cart. coord. in units 2 pi/alat)
               b(1) = ( -1.003229  1.003229  1.003229 )  
               b(2) = (  1.003229 -1.003229  1.003229 )  
               b(3) = (  1.003229  1.003229 -1.003229 )  


     PseudoPot. # 1 for Pb read from file:
     /work/02599/asmiller/pseudo/gbrv/pbe_GBRV/pb_pbe_v1.uspp.F.UPF
     MD5 check sum: a5f44a0c8587cfbb5a05efeead6b9227
     Pseudo is Ultrasoft + core correction, Zval = 14.0
     Generated by new atomic code, or converted to UPF format
     Using radial grid of  899 points,  6 beta functions with: 
                l(1) =   0
                l(2) =   0
                l(3) =   1
                l(4) =   1
                l(5) =   2
                l(6) =   2
     Q(r) pseudized with  6 coefficients,  rinner =    1.000   1.000   1.000
                                                       1.000   1.000

     PseudoPot. # 2 for Se read from file:
     /work/02599/asmiller/pseudo/gbrv/pbe_GBRV/se_pbe_v1.uspp.F.UPF
     MD5 check sum: 7043f8c3d783c440dfcc8575b58f7dd3
     Pseudo is Ultrasoft + core correction, Zval =  6.0
     Generated by new atomic code, or converted to UPF format
     Using radial grid of  877 points,  6 beta functions with: 
                l(1) =   0
                l(2) =   0
                l(3) =   1
                l(4) =   1
                l(5) =   2
                l(6) =   2
     Q(r) pseudized with  8 coefficients,  rinner =    1.300   1.300   1.300
                                                       1.300   1.300

     atomic species   valence    mass     pseudopotential
        Pb            14.00   207.20000     Pb( 1.00)
        Se             6.00    78.96000     Se( 1.00)

     48 Sym. Ops., with inversion, found



   Cartesian axes

     site n.     atom                  positions (alat units)
         1           Pb  tau(   1) = (   0.0000000   0.0000000   0.0000000  )
         2           Se  tau(   2) = (   0.4983907   0.4983907   0.4983907  )

     number of k points=   728

     Number of k-points >= 100: set verbosity='high' to print them.

     Dense  grid:    95001 G-vectors     FFT dimensions: (  64,  64,  64)

     Smooth grid:    18197 G-vectors     FFT dimensions: (  40,  40,  40)

     Largest allocated arrays     est. size (Mb)     dimensions
        Kohn-Sham Wavefunctions         0.03 Mb     (    209,   10)
        NL pseudopotentials             0.11 Mb     (    209,   36)
        Each V/rho on FFT grid          0.38 Mb     (  24576)
        Each G-vector array             0.06 Mb     (   7917)
        G-vector shells                 0.01 Mb     (    662)
     Largest temporary arrays     est. size (Mb)     dimensions
        Auxiliary wavefunctions         0.13 Mb     (    209,   40)
        Each subspace H/S matrix        0.02 Mb     (  40,  40)
        Each <psi_i|beta_j> matrix      0.01 Mb     (     36,   10)

     The potential is recalculated from file :
     ./_ph0/PbSe.save/charge-density.dat


     negative rho (up, down):  0.157E-01 0.000E+00
     Starting wfc are   13 atomic wfcs

     total cpu time spent up to now is        0.6 secs

     per-process dynamical memory:    58.6 Mb

     Band Structure Calculation
     Davidson diagonalization with overlap

     ethr =  5.00E-11,  avg # of iterations = 28.3

     total cpu time spent up to now is       76.3 secs

     End of band structure calculation

     Number of k-points >= 100: set verbosity='high' to print the bands.

     Writing output data file PbSe.save

                                                                                

     bravais-lattice index     =            0
     lattice parameter (alat)  =      11.5651  a.u.
     unit-cell volume          =     382.9929 (a.u.)^3
     number of atoms/cell      =            2
     number of atomic types    =            2
     kinetic-energy cut-off    =      50.0000  Ry
     charge density cut-off    =     600.0000  Ry
     convergence threshold     =      1.0E-16
     beta                      =       0.7000
     number of iterations used =            4
     Exchange-correlation      = PBESOL ( 1 410 8 0)
     EXX-fraction              =        0.00


     celldm(1)=   11.56512  celldm(2)=    0.00000  celldm(3)=    0.00000
     celldm(4)=    0.00000  celldm(5)=    0.00000  celldm(6)=    0.00000

     crystal axes: (cart. coord. in units of alat)
               a(1) = (  0.0000  0.4984  0.4984 )  
               a(2) = (  0.4984  0.0000  0.4984 )  
               a(3) = (  0.4984  0.4984  0.0000 )  

     reciprocal axes: (cart. coord. in units 2 pi/alat)
               b(1) = ( -1.0032  1.0032  1.0032 )  
               b(2) = (  1.0032 -1.0032  1.0032 )  
               b(3) = (  1.0032  1.0032 -1.0032 )  


     Atoms inside the unit cell: 

   Cartesian axes

     site n.  atom      mass           positions (alat units)
        1        Pb 207.2000   tau( 1) = (    0.00000    0.00000    0.00000  )
        2        Se  78.9600   tau( 2) = (    0.49839    0.49839    0.49839  )

     Computing dynamical matrix for 
                    q = (   0.1672048   0.1672048  -0.1672048 )
 
      6 Sym.Ops. (no q -> -q+G )


     G cutoff = 2032.7880  (   7917 G-vectors)     FFT grid: ( 64, 64, 64)
     G cutoff =  677.5960  (   1518 G-vectors)  smooth grid: ( 40, 40, 40)
     number of k points=   728

     PseudoPot. # 1 for Pb read from file:
     /work/02599/asmiller/pseudo/gbrv/pbe_GBRV/pb_pbe_v1.uspp.F.UPF
     MD5 check sum: a5f44a0c8587cfbb5a05efeead6b9227
     Pseudo is Ultrasoft + core correction, Zval = 14.0
     Generated by new atomic code, or converted to UPF format
     Using radial grid of  899 points,  6 beta functions with: 
                l(1) =   0
                l(2) =   0
                l(3) =   1
                l(4) =   1
                l(5) =   2
                l(6) =   2
     Q(r) pseudized with  6 coefficients,  rinner =    1.000   1.000   1.000
                                                       1.000   1.000

     PseudoPot. # 2 for Se read from file:
     /work/02599/asmiller/pseudo/gbrv/pbe_GBRV/se_pbe_v1.uspp.F.UPF
     MD5 check sum: 7043f8c3d783c440dfcc8575b58f7dd3
     Pseudo is Ultrasoft + core correction, Zval =  6.0
     Generated by new atomic code, or converted to UPF format
     Using radial grid of  877 points,  6 beta functions with: 
                l(1) =   0
                l(2) =   0
                l(3) =   1
                l(4) =   1
                l(5) =   2
                l(6) =   2
     Q(r) pseudized with  8 coefficients,  rinner =    1.300   1.300   1.300
                                                       1.300   1.300


     Atomic displacements:
     There are   4 irreducible representations

     Representation     1      1 modes -A_1  L_1 To be done

     Representation     2      1 modes -A_1  L_1 To be done

     Representation     3      2 modes -E    L_3 To be done

     Representation     4      2 modes -E    L_3 To be done



     Alpha used in Ewald sum =   2.8000

     negative rho (up, down):  0.157E-01 0.000E+00
     PHONON       :  6m32.20s CPU     7m 0.63s WALL



     Representation #  1 mode #   1

     Self-consistent Calculation

      iter #   1 total cpu time :   430.7 secs   av.it.:   6.4
      thresh= 0.100E-01 alpha_mix =  0.700 |ddv_scf|^2 =  0.984E-03

      iter #   2 total cpu time :   447.9 secs   av.it.:  13.0
      thresh= 0.314E-02 alpha_mix =  0.700 |ddv_scf|^2 =  0.770E-01

      iter #   3 total cpu time :   462.4 secs   av.it.:  10.5
      thresh= 0.100E-01 alpha_mix =  0.700 |ddv_scf|^2 =  0.147E-06

      iter #   4 total cpu time :   484.3 secs   av.it.:  17.3
      thresh= 0.383E-04 alpha_mix =  0.700 |ddv_scf|^2 =  0.777E-06

      iter #   5 total cpu time :   501.7 secs   av.it.:  13.2
      thresh= 0.882E-04 alpha_mix =  0.700 |ddv_scf|^2 =  0.602E-08

      iter #   6 total cpu time :   521.0 secs   av.it.:  14.8
      thresh= 0.776E-05 alpha_mix =  0.700 |ddv_scf|^2 =  0.122E-08

      iter #   7 total cpu time :   538.1 secs   av.it.:  13.0
      thresh= 0.350E-05 alpha_mix =  0.700 |ddv_scf|^2 =  0.749E-10

      iter #   8 total cpu time :   552.4 secs   av.it.:  10.4
      thresh= 0.866E-06 alpha_mix =  0.700 |ddv_scf|^2 =  0.105E-10

      iter #   9 total cpu time :   570.6 secs   av.it.:  13.8
      thresh= 0.324E-06 alpha_mix =  0.700 |ddv_scf|^2 =  0.794E-12

      iter #  10 total cpu time :   589.3 secs   av.it.:  14.4
      thresh= 0.891E-07 alpha_mix =  0.700 |ddv_scf|^2 =  0.913E-13

      iter #  11 total cpu time :   608.0 secs   av.it.:  14.4
      thresh= 0.302E-07 alpha_mix =  0.700 |ddv_scf|^2 =  0.220E-14

      iter #  12 total cpu time :   628.0 secs   av.it.:  15.5
      thresh= 0.469E-08 alpha_mix =  0.700 |ddv_scf|^2 =  0.514E-15

      iter #  13 total cpu time :   647.3 secs   av.it.:  15.0
      thresh= 0.227E-08 alpha_mix =  0.700 |ddv_scf|^2 =  0.265E-16

     End of self-consistent calculation

     Convergence has been achieved 


     Representation #  2 mode #   2

     Self-consistent Calculation

      iter #   1 total cpu time :   661.7 secs   av.it.:   9.7
      thresh= 0.100E-01 alpha_mix =  0.700 |ddv_scf|^2 =  0.518E-02

      iter #   2 total cpu time :   678.9 secs   av.it.:  13.1
      thresh= 0.720E-02 alpha_mix =  0.700 |ddv_scf|^2 =  0.411E+00

      iter #   3 total cpu time :   694.9 secs   av.it.:  12.0
      thresh= 0.100E-01 alpha_mix =  0.700 |ddv_scf|^2 =  0.121E-04

      iter #   4 total cpu time :   714.3 secs   av.it.:  15.0
      thresh= 0.349E-03 alpha_mix =  0.700 |ddv_scf|^2 =  0.338E-05

      iter #   5 total cpu time :   733.0 secs   av.it.:  14.3
      thresh= 0.184E-03 alpha_mix =  0.700 |ddv_scf|^2 =  0.291E-07

      iter #   6 total cpu time :   751.3 secs   av.it.:  14.0
      thresh= 0.170E-04 alpha_mix =  0.700 |ddv_scf|^2 =  0.568E-09

      iter #   7 total cpu time :   769.5 secs   av.it.:  13.9
      thresh= 0.238E-05 alpha_mix =  0.700 |ddv_scf|^2 =  0.255E-09

      iter #   8 total cpu time :   785.5 secs   av.it.:  12.0
      thresh= 0.160E-05 alpha_mix =  0.700 |ddv_scf|^2 =  0.179E-09

      iter #   9 total cpu time :   802.2 secs   av.it.:  12.7
      thresh= 0.134E-05 alpha_mix =  0.700 |ddv_scf|^2 =  0.182E-09

      iter #  10 total cpu time :   818.8 secs   av.it.:  12.6
      thresh= 0.135E-05 alpha_mix =  0.700 |ddv_scf|^2 =  0.359E-11

      iter #  11 total cpu time :   835.6 secs   av.it.:  12.7
      thresh= 0.190E-06 alpha_mix =  0.700 |ddv_scf|^2 =  0.485E-13

      iter #  12 total cpu time :   854.2 secs   av.it.:  14.4
      thresh= 0.220E-07 alpha_mix =  0.700 |ddv_scf|^2 =  0.135E-13

      iter #  13 total cpu time :   871.0 secs   av.it.:  12.8
      thresh= 0.116E-07 alpha_mix =  0.700 |ddv_scf|^2 =  0.332E-15

      iter #  14 total cpu time :   890.2 secs   av.it.:  14.9
      thresh= 0.182E-08 alpha_mix =  0.700 |ddv_scf|^2 =  0.302E-15

      iter #  15 total cpu time :   905.7 secs   av.it.:  11.4
      thresh= 0.174E-08 alpha_mix =  0.700 |ddv_scf|^2 =  0.249E-16

     End of self-consistent calculation

     Convergence has been achieved 


     Representation #  3 modes #   3  4

     Self-consistent Calculation

      iter #   1 total cpu time :   923.5 secs   av.it.:   5.1
      thresh= 0.100E-01 alpha_mix =  0.700 |ddv_scf|^2 =  0.458E-07

      iter #   2 total cpu time :   967.9 secs   av.it.:  17.6
      thresh= 0.214E-04 alpha_mix =  0.700 |ddv_scf|^2 =  0.541E-08

      iter #   3 total cpu time :  1013.2 secs   av.it.:  18.1
      thresh= 0.735E-05 alpha_mix =  0.700 |ddv_scf|^2 =  0.411E-09

      iter #   4 total cpu time :  1059.0 secs   av.it.:  18.3
      thresh= 0.203E-05 alpha_mix =  0.700 |ddv_scf|^2 =  0.190E-10

      iter #   5 total cpu time :  1103.8 secs   av.it.:  17.9
      thresh= 0.436E-06 alpha_mix =  0.700 |ddv_scf|^2 =  0.156E-12

      iter #   6 total cpu time :  1149.6 secs   av.it.:  18.2
      thresh= 0.395E-07 alpha_mix =  0.700 |ddv_scf|^2 =  0.156E-14

      iter #   7 total cpu time :  1194.4 secs   av.it.:  17.9
      thresh= 0.395E-08 alpha_mix =  0.700 |ddv_scf|^2 =  0.311E-16

     End of self-consistent calculation

     Convergence has been achieved 


     Representation #  4 modes #   5  6

     Self-consistent Calculation

      iter #   1 total cpu time :  1219.8 secs   av.it.:   8.6
      thresh= 0.100E-01 alpha_mix =  0.700 |ddv_scf|^2 =  0.984E-06

      iter #   2 total cpu time :  1265.9 secs   av.it.:  18.6
      thresh= 0.992E-04 alpha_mix =  0.700 |ddv_scf|^2 =  0.328E-06

      iter #   3 total cpu time :  1310.8 secs   av.it.:  18.1
      thresh= 0.572E-04 alpha_mix =  0.700 |ddv_scf|^2 =  0.308E-09

      iter #   4 total cpu time :  1359.3 secs   av.it.:  19.7
      thresh= 0.175E-05 alpha_mix =  0.700 |ddv_scf|^2 =  0.187E-10

      iter #   5 total cpu time :  1406.5 secs   av.it.:  19.1
      thresh= 0.433E-06 alpha_mix =  0.700 |ddv_scf|^2 =  0.988E-12

      iter #   6 total cpu time :  1450.5 secs   av.it.:  17.7
      thresh= 0.994E-07 alpha_mix =  0.700 |ddv_scf|^2 =  0.337E-14

      iter #   7 total cpu time :  1494.8 secs   av.it.:  17.8
      thresh= 0.580E-08 alpha_mix =  0.700 |ddv_scf|^2 =  0.213E-15

      iter #   8 total cpu time :  1540.3 secs   av.it.:  17.7
      thresh= 0.146E-08 alpha_mix =  0.700 |ddv_scf|^2 =  0.164E-17

     End of self-consistent calculation

     Convergence has been achieved 
 
     Number of q in the star =    8
     List of q in the star:
          1   0.167204824   0.167204824  -0.167204824
          2   0.167204824  -0.167204824  -0.167204824
          3   0.167204824   0.167204824   0.167204824
          4  -0.167204824  -0.167204824   0.167204824
          5  -0.167204824   0.167204824  -0.167204824
          6  -0.167204824  -0.167204824  -0.167204824
          7  -0.167204824   0.167204824   0.167204824
          8   0.167204824  -0.167204824   0.167204824

     Diagonalizing the dynamical matrix

     q = (    0.167204824   0.167204824  -0.167204824 ) 

 **************************************************************************
     omega( 1) =       0.844861 [THz] =      28.181519 [cm-1]
     omega( 2) =       0.844861 [THz] =      28.181519 [cm-1]
     omega( 3) =       1.339512 [THz] =      44.681319 [cm-1]
     omega( 4) =       2.732452 [THz] =      91.144776 [cm-1]
     omega( 5) =       2.732452 [THz] =      91.144776 [cm-1]
     omega( 6) =       4.377365 [THz] =     146.013184 [cm-1]
 **************************************************************************

     Mode symmetry, C_3v (3m)   point group:

     omega(  1 -  2) =         28.2  [cm-1]   --> E    L_3           
     omega(  3 -  3) =         44.7  [cm-1]   --> A_1  L_1           
     omega(  4 -  5) =         91.1  [cm-1]   --> E    L_3           
     omega(  6 -  6) =        146.0  [cm-1]   --> A_1  L_1           

 **************************************************************************

     Calculation of q =    0.3344096   0.3344096  -0.3344096
 
     Parallelization info
     --------------------
     sticks:   dense  smooth     PW     G-vecs:    dense   smooth      PW
     Min         228      77     24                 7916     1508     267
     Max         230      78     26                 7918     1521     269
     Sum        2749     925    295                95001    18197    3215
 


     bravais-lattice index     =            0
     lattice parameter (alat)  =      11.5651  a.u.
     unit-cell volume          =     382.9929 (a.u.)^3
     number of atoms/cell      =            2
     number of atomic types    =            2
     number of electrons       =        20.00
     number of Kohn-Sham states=           10
     kinetic-energy cutoff     =      50.0000  Ry
     charge density cutoff     =     600.0000  Ry
     Exchange-correlation      = PBESOL ( 1 410 8 0)
     EXX-fraction              =        0.00

     celldm(1)=  11.565124  celldm(2)=   0.000000  celldm(3)=   0.000000
     celldm(4)=   0.000000  celldm(5)=   0.000000  celldm(6)=   0.000000

     crystal axes: (cart. coord. in units of alat)
               a(1) = (   0.000000   0.498391   0.498391 )  
               a(2) = (   0.498391   0.000000   0.498391 )  
               a(3) = (   0.498391   0.498391   0.000000 )  

     reciprocal axes: (cart. coord. in units 2 pi/alat)
               b(1) = ( -1.003229  1.003229  1.003229 )  
               b(2) = (  1.003229 -1.003229  1.003229 )  
               b(3) = (  1.003229  1.003229 -1.003229 )  


     PseudoPot. # 1 for Pb read from file:
     /work/02599/asmiller/pseudo/gbrv/pbe_GBRV/pb_pbe_v1.uspp.F.UPF
     MD5 check sum: a5f44a0c8587cfbb5a05efeead6b9227
     Pseudo is Ultrasoft + core correction, Zval = 14.0
     Generated by new atomic code, or converted to UPF format
     Using radial grid of  899 points,  6 beta functions with: 
                l(1) =   0
                l(2) =   0
                l(3) =   1
                l(4) =   1
                l(5) =   2
                l(6) =   2
     Q(r) pseudized with  6 coefficients,  rinner =    1.000   1.000   1.000
                                                       1.000   1.000

     PseudoPot. # 2 for Se read from file:
     /work/02599/asmiller/pseudo/gbrv/pbe_GBRV/se_pbe_v1.uspp.F.UPF
     MD5 check sum: 7043f8c3d783c440dfcc8575b58f7dd3
     Pseudo is Ultrasoft + core correction, Zval =  6.0
     Generated by new atomic code, or converted to UPF format
     Using radial grid of  877 points,  6 beta functions with: 
                l(1) =   0
                l(2) =   0
                l(3) =   1
                l(4) =   1
                l(5) =   2
                l(6) =   2
     Q(r) pseudized with  8 coefficients,  rinner =    1.300   1.300   1.300
                                                       1.300   1.300

     atomic species   valence    mass     pseudopotential
        Pb            14.00   207.20000     Pb( 1.00)
        Se             6.00    78.96000     Se( 1.00)

     48 Sym. Ops., with inversion, found



   Cartesian axes

     site n.     atom                  positions (alat units)
         1           Pb  tau(   1) = (   0.0000000   0.0000000   0.0000000  )
         2           Se  tau(   2) = (   0.4983907   0.4983907   0.4983907  )

     number of k points=   728

     Number of k-points >= 100: set verbosity='high' to print them.

     Dense  grid:    95001 G-vectors     FFT dimensions: (  64,  64,  64)

     Smooth grid:    18197 G-vectors     FFT dimensions: (  40,  40,  40)

     Largest allocated arrays     est. size (Mb)     dimensions
        Kohn-Sham Wavefunctions         0.03 Mb     (    213,   10)
        NL pseudopotentials             0.12 Mb     (    213,   36)
        Each V/rho on FFT grid          0.38 Mb     (  24576)
        Each G-vector array             0.06 Mb     (   7917)
        G-vector shells                 0.01 Mb     (    662)
     Largest temporary arrays     est. size (Mb)     dimensions
        Auxiliary wavefunctions         0.13 Mb     (    213,   40)
        Each subspace H/S matrix        0.02 Mb     (  40,  40)
        Each <psi_i|beta_j> matrix      0.01 Mb     (     36,   10)

     The potential is recalculated from file :
     ./_ph0/PbSe.save/charge-density.dat


     negative rho (up, down):  0.157E-01 0.000E+00
     Starting wfc are   13 atomic wfcs

     total cpu time spent up to now is       78.8 secs

     per-process dynamical memory:    68.2 Mb

     Band Structure Calculation
     Davidson diagonalization with overlap

     ethr =  5.00E-11,  avg # of iterations = 28.3

     total cpu time spent up to now is      133.4 secs

     End of band structure calculation

     Number of k-points >= 100: set verbosity='high' to print the bands.

     Writing output data file PbSe.save

                                                                                

     bravais-lattice index     =            0
     lattice parameter (alat)  =      11.5651  a.u.
     unit-cell volume          =     382.9929 (a.u.)^3
     number of atoms/cell      =            2
     number of atomic types    =            2
     kinetic-energy cut-off    =      50.0000  Ry
     charge density cut-off    =     600.0000  Ry
     convergence threshold     =      1.0E-16
     beta                      =       0.7000
     number of iterations used =            4
     Exchange-correlation      = PBESOL ( 1 410 8 0)
     EXX-fraction              =        0.00


     celldm(1)=   11.56512  celldm(2)=    0.00000  celldm(3)=    0.00000
     celldm(4)=    0.00000  celldm(5)=    0.00000  celldm(6)=    0.00000

     crystal axes: (cart. coord. in units of alat)
               a(1) = (  0.0000  0.4984  0.4984 )  
               a(2) = (  0.4984  0.0000  0.4984 )  
               a(3) = (  0.4984  0.4984  0.0000 )  

     reciprocal axes: (cart. coord. in units 2 pi/alat)
               b(1) = ( -1.0032  1.0032  1.0032 )  
               b(2) = (  1.0032 -1.0032  1.0032 )  
               b(3) = (  1.0032  1.0032 -1.0032 )  


     Atoms inside the unit cell: 

   Cartesian axes

     site n.  atom      mass           positions (alat units)
        1        Pb 207.2000   tau( 1) = (    0.00000    0.00000    0.00000  )
        2        Se  78.9600   tau( 2) = (    0.49839    0.49839    0.49839  )

     Computing dynamical matrix for 
                    q = (   0.3344096   0.3344096  -0.3344096 )
 
      6 Sym.Ops. (no q -> -q+G )


     G cutoff = 2032.7880  (   7917 G-vectors)     FFT grid: ( 64, 64, 64)
     G cutoff =  677.5960  (   1518 G-vectors)  smooth grid: ( 40, 40, 40)
     number of k points=   728

     PseudoPot. # 1 for Pb read from file:
     /work/02599/asmiller/pseudo/gbrv/pbe_GBRV/pb_pbe_v1.uspp.F.UPF
     MD5 check sum: a5f44a0c8587cfbb5a05efeead6b9227
     Pseudo is Ultrasoft + core correction, Zval = 14.0
     Generated by new atomic code, or converted to UPF format
     Using radial grid of  899 points,  6 beta functions with: 
                l(1) =   0
                l(2) =   0
                l(3) =   1
                l(4) =   1
                l(5) =   2
                l(6) =   2
     Q(r) pseudized with  6 coefficients,  rinner =    1.000   1.000   1.000
                                                       1.000   1.000

     PseudoPot. # 2 for Se read from file:
     /work/02599/asmiller/pseudo/gbrv/pbe_GBRV/se_pbe_v1.uspp.F.UPF
     MD5 check sum: 7043f8c3d783c440dfcc8575b58f7dd3
     Pseudo is Ultrasoft + core correction, Zval =  6.0
     Generated by new atomic code, or converted to UPF format
     Using radial grid of  877 points,  6 beta functions with: 
                l(1) =   0
                l(2) =   0
                l(3) =   1
                l(4) =   1
                l(5) =   2
                l(6) =   2
     Q(r) pseudized with  8 coefficients,  rinner =    1.300   1.300   1.300
                                                       1.300   1.300


     Atomic displacements:
     There are   4 irreducible representations

     Representation     1      1 modes -A_1  L_1 To be done

     Representation     2      1 modes -A_1  L_1 To be done

     Representation     3      2 modes -E    L_3 To be done

     Representation     4      2 modes -E    L_3 To be done



     Alpha used in Ewald sum =   2.8000

     negative rho (up, down):  0.157E-01 0.000E+00
     PHONON       : 25m 9.68s CPU    26m45.35s WALL



     Representation #  1 mode #   1

     Self-consistent Calculation

      iter #   1 total cpu time :  1615.1 secs   av.it.:   5.9
      thresh= 0.100E-01 alpha_mix =  0.700 |ddv_scf|^2 =  0.516E-04

      iter #   2 total cpu time :  1634.4 secs   av.it.:  14.9
      thresh= 0.718E-03 alpha_mix =  0.700 |ddv_scf|^2 =  0.818E-03

      iter #   3 total cpu time :  1650.2 secs   av.it.:  11.6
      thresh= 0.286E-02 alpha_mix =  0.700 |ddv_scf|^2 =  0.756E-06

      iter #   4 total cpu time :  1670.0 secs   av.it.:  15.3
      thresh= 0.869E-04 alpha_mix =  0.700 |ddv_scf|^2 =  0.332E-07

      iter #   5 total cpu time :  1690.0 secs   av.it.:  15.2
      thresh= 0.182E-04 alpha_mix =  0.700 |ddv_scf|^2 =  0.469E-09

      iter #   6 total cpu time :  1711.0 secs   av.it.:  16.2
      thresh= 0.217E-05 alpha_mix =  0.700 |ddv_scf|^2 =  0.103E-09

      iter #   7 total cpu time :  1731.1 secs   av.it.:  15.5
      thresh= 0.101E-05 alpha_mix =  0.700 |ddv_scf|^2 =  0.139E-11

      iter #   8 total cpu time :  1752.2 secs   av.it.:  16.4
      thresh= 0.118E-06 alpha_mix =  0.700 |ddv_scf|^2 =  0.137E-12

      iter #   9 total cpu time :  1773.0 secs   av.it.:  16.0
      thresh= 0.370E-07 alpha_mix =  0.700 |ddv_scf|^2 =  0.509E-13

      iter #  10 total cpu time :  1792.4 secs   av.it.:  14.9
      thresh= 0.226E-07 alpha_mix =  0.700 |ddv_scf|^2 =  0.553E-13

      iter #  11 total cpu time :  1809.7 secs   av.it.:  13.2
      thresh= 0.235E-07 alpha_mix =  0.700 |ddv_scf|^2 =  0.174E-14

      iter #  12 total cpu time :  1830.4 secs   av.it.:  16.0
      thresh= 0.417E-08 alpha_mix =  0.700 |ddv_scf|^2 =  0.649E-15

      iter #  13 total cpu time :  1849.3 secs   av.it.:  14.5
      thresh= 0.255E-08 alpha_mix =  0.700 |ddv_scf|^2 =  0.460E-16

     End of self-consistent calculation

     Convergence has been achieved 


     Representation #  2 mode #   2

     Self-consistent Calculation

      iter #   1 total cpu time :  1863.4 secs   av.it.:   9.7
      thresh= 0.100E-01 alpha_mix =  0.700 |ddv_scf|^2 =  0.305E-03

      iter #   2 total cpu time :  1882.9 secs   av.it.:  15.0
      thresh= 0.175E-02 alpha_mix =  0.700 |ddv_scf|^2 =  0.510E-02

      iter #   3 total cpu time :  1898.4 secs   av.it.:  11.4
      thresh= 0.714E-02 alpha_mix =  0.700 |ddv_scf|^2 =  0.300E-05

      iter #   4 total cpu time :  1918.6 secs   av.it.:  15.6
      thresh= 0.173E-03 alpha_mix =  0.700 |ddv_scf|^2 =  0.119E-06

      iter #   5 total cpu time :  1938.1 secs   av.it.:  15.1
      thresh= 0.345E-04 alpha_mix =  0.700 |ddv_scf|^2 =  0.287E-07

      iter #   6 total cpu time :  1956.9 secs   av.it.:  14.0
      thresh= 0.170E-04 alpha_mix =  0.700 |ddv_scf|^2 =  0.353E-09

      iter #   7 total cpu time :  1975.8 secs   av.it.:  14.5
      thresh= 0.188E-05 alpha_mix =  0.700 |ddv_scf|^2 =  0.831E-11

      iter #   8 total cpu time :  1995.5 secs   av.it.:  15.2
      thresh= 0.288E-06 alpha_mix =  0.700 |ddv_scf|^2 =  0.198E-12

      iter #   9 total cpu time :  2015.4 secs   av.it.:  15.4
      thresh= 0.445E-07 alpha_mix =  0.700 |ddv_scf|^2 =  0.793E-12

      iter #  10 total cpu time :  2032.1 secs   av.it.:  12.6
      thresh= 0.890E-07 alpha_mix =  0.700 |ddv_scf|^2 =  0.956E-14

      iter #  11 total cpu time :  2051.6 secs   av.it.:  14.8
      thresh= 0.978E-08 alpha_mix =  0.700 |ddv_scf|^2 =  0.318E-14

      iter #  12 total cpu time :  2071.1 secs   av.it.:  15.0
      thresh= 0.564E-08 alpha_mix =  0.700 |ddv_scf|^2 =  0.846E-15

      iter #  13 total cpu time :  2089.2 secs   av.it.:  13.7
      thresh= 0.291E-08 alpha_mix =  0.700 |ddv_scf|^2 =  0.266E-16

     End of self-consistent calculation

     Convergence has been achieved 


     Representation #  3 modes #   3  4

     Self-consistent Calculation

      iter #   1 total cpu time :  2105.5 secs   av.it.:   4.6
      thresh= 0.100E-01 alpha_mix =  0.700 |ddv_scf|^2 =  0.504E-07

      iter #   2 total cpu time :  2149.7 secs   av.it.:  17.4
      thresh= 0.224E-04 alpha_mix =  0.700 |ddv_scf|^2 =  0.479E-08

      iter #   3 total cpu time :  2195.0 secs   av.it.:  18.0
      thresh= 0.692E-05 alpha_mix =  0.700 |ddv_scf|^2 =  0.284E-09

      iter #   4 total cpu time :  2241.3 secs   av.it.:  18.5
      thresh= 0.169E-05 alpha_mix =  0.700 |ddv_scf|^2 =  0.242E-10

      iter #   5 total cpu time :  2286.4 secs   av.it.:  17.9
      thresh= 0.492E-06 alpha_mix =  0.700 |ddv_scf|^2 =  0.231E-12

      iter #   6 total cpu time :  2332.1 secs   av.it.:  18.2
      thresh= 0.481E-07 alpha_mix =  0.700 |ddv_scf|^2 =  0.211E-14

      iter #   7 total cpu time :  2377.1 secs   av.it.:  18.0
      thresh= 0.459E-08 alpha_mix =  0.700 |ddv_scf|^2 =  0.588E-16

     End of self-consistent calculation

     Convergence has been achieved 


     Representation #  4 modes #   5  6

     Self-consistent Calculation

      iter #   1 total cpu time :  2402.8 secs   av.it.:   8.8
      thresh= 0.100E-01 alpha_mix =  0.700 |ddv_scf|^2 =  0.104E-05

      iter #   2 total cpu time :  2449.2 secs   av.it.:  18.6
      thresh= 0.102E-03 alpha_mix =  0.700 |ddv_scf|^2 =  0.347E-06

      iter #   3 total cpu time :  2494.0 secs   av.it.:  17.9
      thresh= 0.589E-04 alpha_mix =  0.700 |ddv_scf|^2 =  0.251E-09

      iter #   4 total cpu time :  2542.9 secs   av.it.:  19.8
      thresh= 0.158E-05 alpha_mix =  0.700 |ddv_scf|^2 =  0.200E-10

      iter #   5 total cpu time :  2589.4 secs   av.it.:  18.7
      thresh= 0.447E-06 alpha_mix =  0.700 |ddv_scf|^2 =  0.967E-12

      iter #   6 total cpu time :  2634.2 secs   av.it.:  17.8
      thresh= 0.983E-07 alpha_mix =  0.700 |ddv_scf|^2 =  0.330E-14

      iter #   7 total cpu time :  2677.6 secs   av.it.:  17.3
      thresh= 0.575E-08 alpha_mix =  0.700 |ddv_scf|^2 =  0.187E-15

      iter #   8 total cpu time :  2722.4 secs   av.it.:  17.9
      thresh= 0.137E-08 alpha_mix =  0.700 |ddv_scf|^2 =  0.369E-17

     End of self-consistent calculation

     Convergence has been achieved 
 
     Number of q in the star =    8
     List of q in the star:
          1   0.334409648   0.334409648  -0.334409648
          2   0.334409648  -0.334409648  -0.334409648
          3   0.334409648   0.334409648   0.334409648
          4  -0.334409648  -0.334409648   0.334409648
          5  -0.334409648   0.334409648  -0.334409648
          6  -0.334409648  -0.334409648  -0.334409648
          7  -0.334409648   0.334409648   0.334409648
          8   0.334409648  -0.334409648   0.334409648

     Diagonalizing the dynamical matrix

     q = (    0.334409648   0.334409648  -0.334409648 ) 

 **************************************************************************
     omega( 1) =       1.424214 [THz] =      47.506659 [cm-1]
     omega( 2) =       1.424214 [THz] =      47.506659 [cm-1]
     omega( 3) =       2.452634 [THz] =      81.811074 [cm-1]
     omega( 4) =       3.526806 [THz] =     117.641577 [cm-1]
     omega( 5) =       3.526806 [THz] =     117.641577 [cm-1]
     omega( 6) =       4.414424 [THz] =     147.249336 [cm-1]
 **************************************************************************

     Mode symmetry, C_3v (3m)   point group:

     omega(  1 -  2) =         47.5  [cm-1]   --> E    L_3           
     omega(  3 -  3) =         81.8  [cm-1]   --> A_1  L_1           
     omega(  4 -  5) =        117.6  [cm-1]   --> E    L_3           
     omega(  6 -  6) =        147.2  [cm-1]   --> A_1  L_1           

 **************************************************************************

     Calculation of q =   -0.5016145  -0.5016145   0.5016145
 
     Parallelization info
     --------------------
     sticks:   dense  smooth     PW     G-vecs:    dense   smooth      PW
     Min         228      77     26                 7916     1511     303
     Max         230      78     27                 7918     1522     306
     Sum        2749     925    313                95001    18197    3647
 


     bravais-lattice index     =            0
     lattice parameter (alat)  =      11.5651  a.u.
     unit-cell volume          =     382.9929 (a.u.)^3
     number of atoms/cell      =            2
     number of atomic types    =            2
     number of electrons       =        20.00
     number of Kohn-Sham states=           10
     kinetic-energy cutoff     =      50.0000  Ry
     charge density cutoff     =     600.0000  Ry
     Exchange-correlation      = PBESOL ( 1 410 8 0)
     EXX-fraction              =        0.00

     celldm(1)=  11.565124  celldm(2)=   0.000000  celldm(3)=   0.000000
     celldm(4)=   0.000000  celldm(5)=   0.000000  celldm(6)=   0.000000

     crystal axes: (cart. coord. in units of alat)
               a(1) = (   0.000000   0.498391   0.498391 )  
               a(2) = (   0.498391   0.000000   0.498391 )  
               a(3) = (   0.498391   0.498391   0.000000 )  

     reciprocal axes: (cart. coord. in units 2 pi/alat)
               b(1) = ( -1.003229  1.003229  1.003229 )  
               b(2) = (  1.003229 -1.003229  1.003229 )  
               b(3) = (  1.003229  1.003229 -1.003229 )  


     PseudoPot. # 1 for Pb read from file:
     /work/02599/asmiller/pseudo/gbrv/pbe_GBRV/pb_pbe_v1.uspp.F.UPF
     MD5 check sum: a5f44a0c8587cfbb5a05efeead6b9227
     Pseudo is Ultrasoft + core correction, Zval = 14.0
     Generated by new atomic code, or converted to UPF format
     Using radial grid of  899 points,  6 beta functions with: 
                l(1) =   0
                l(2) =   0
                l(3) =   1
                l(4) =   1
                l(5) =   2
                l(6) =   2
     Q(r) pseudized with  6 coefficients,  rinner =    1.000   1.000   1.000
                                                       1.000   1.000

     PseudoPot. # 2 for Se read from file:
     /work/02599/asmiller/pseudo/gbrv/pbe_GBRV/se_pbe_v1.uspp.F.UPF
     MD5 check sum: 7043f8c3d783c440dfcc8575b58f7dd3
     Pseudo is Ultrasoft + core correction, Zval =  6.0
     Generated by new atomic code, or converted to UPF format
     Using radial grid of  877 points,  6 beta functions with: 
                l(1) =   0
                l(2) =   0
                l(3) =   1
                l(4) =   1
                l(5) =   2
                l(6) =   2
     Q(r) pseudized with  8 coefficients,  rinner =    1.300   1.300   1.300
                                                       1.300   1.300

     atomic species   valence    mass     pseudopotential
        Pb            14.00   207.20000     Pb( 1.00)
        Se             6.00    78.96000     Se( 1.00)

     48 Sym. Ops., with inversion, found



   Cartesian axes

     site n.     atom                  positions (alat units)
         1           Pb  tau(   1) = (   0.0000000   0.0000000   0.0000000  )
         2           Se  tau(   2) = (   0.4983907   0.4983907   0.4983907  )

     number of k points=   378

     Number of k-points >= 100: set verbosity='high' to print them.

     Dense  grid:    95001 G-vectors     FFT dimensions: (  64,  64,  64)

     Smooth grid:    18197 G-vectors     FFT dimensions: (  40,  40,  40)

     Largest allocated arrays     est. size (Mb)     dimensions
        Kohn-Sham Wavefunctions         0.03 Mb     (    204,   10)
        NL pseudopotentials             0.11 Mb     (    204,   36)
        Each V/rho on FFT grid          0.38 Mb     (  24576)
        Each G-vector array             0.06 Mb     (   7917)
        G-vector shells                 0.01 Mb     (    668)
     Largest temporary arrays     est. size (Mb)     dimensions
        Auxiliary wavefunctions         0.12 Mb     (    204,   40)
        Each subspace H/S matrix        0.02 Mb     (  40,  40)
        Each <psi_i|beta_j> matrix      0.01 Mb     (     36,   10)

     The potential is recalculated from file :
     ./_ph0/PbSe.save/charge-density.dat


     negative rho (up, down):  0.157E-01 0.000E+00
     Starting wfc are   13 atomic wfcs

     total cpu time spent up to now is      135.3 secs

     per-process dynamical memory:    68.2 Mb

     Band Structure Calculation
     Davidson diagonalization with overlap

     ethr =  5.00E-11,  avg # of iterations = 28.1

     total cpu time spent up to now is      163.2 secs

     End of band structure calculation

     Number of k-points >= 100: set verbosity='high' to print the bands.

     Writing output data file PbSe.save

                                                                                

     bravais-lattice index     =            0
     lattice parameter (alat)  =      11.5651  a.u.
     unit-cell volume          =     382.9929 (a.u.)^3
     number of atoms/cell      =            2
     number of atomic types    =            2
     kinetic-energy cut-off    =      50.0000  Ry
     charge density cut-off    =     600.0000  Ry
     convergence threshold     =      1.0E-16
     beta                      =       0.7000
     number of iterations used =            4
     Exchange-correlation      = PBESOL ( 1 410 8 0)
     EXX-fraction              =        0.00


     celldm(1)=   11.56512  celldm(2)=    0.00000  celldm(3)=    0.00000
     celldm(4)=    0.00000  celldm(5)=    0.00000  celldm(6)=    0.00000

     crystal axes: (cart. coord. in units of alat)
               a(1) = (  0.0000  0.4984  0.4984 )  
               a(2) = (  0.4984  0.0000  0.4984 )  
               a(3) = (  0.4984  0.4984  0.0000 )  

     reciprocal axes: (cart. coord. in units 2 pi/alat)
               b(1) = ( -1.0032  1.0032  1.0032 )  
               b(2) = (  1.0032 -1.0032  1.0032 )  
               b(3) = (  1.0032  1.0032 -1.0032 )  


     Atoms inside the unit cell: 

   Cartesian axes

     site n.  atom      mass           positions (alat units)
        1        Pb 207.2000   tau( 1) = (    0.00000    0.00000    0.00000  )
        2        Se  78.9600   tau( 2) = (    0.49839    0.49839    0.49839  )

     Computing dynamical matrix for 
                    q = (  -0.5016145  -0.5016145   0.5016145 )
 
     13 Sym.Ops. (with q -> -q+G )


     G cutoff = 2032.7880  (   7917 G-vectors)     FFT grid: ( 64, 64, 64)
     G cutoff =  677.5960  (   1517 G-vectors)  smooth grid: ( 40, 40, 40)
     number of k points=   378

     PseudoPot. # 1 for Pb read from file:
     /work/02599/asmiller/pseudo/gbrv/pbe_GBRV/pb_pbe_v1.uspp.F.UPF
     MD5 check sum: a5f44a0c8587cfbb5a05efeead6b9227
     Pseudo is Ultrasoft + core correction, Zval = 14.0
     Generated by new atomic code, or converted to UPF format
     Using radial grid of  899 points,  6 beta functions with: 
                l(1) =   0
                l(2) =   0
                l(3) =   1
                l(4) =   1
                l(5) =   2
                l(6) =   2
     Q(r) pseudized with  6 coefficients,  rinner =    1.000   1.000   1.000
                                                       1.000   1.000

     PseudoPot. # 2 for Se read from file:
     /work/02599/asmiller/pseudo/gbrv/pbe_GBRV/se_pbe_v1.uspp.F.UPF
     MD5 check sum: 7043f8c3d783c440dfcc8575b58f7dd3
     Pseudo is Ultrasoft + core correction, Zval =  6.0
     Generated by new atomic code, or converted to UPF format
     Using radial grid of  877 points,  6 beta functions with: 
                l(1) =   0
                l(2) =   0
                l(3) =   1
                l(4) =   1
                l(5) =   2
                l(6) =   2
     Q(r) pseudized with  8 coefficients,  rinner =    1.300   1.300   1.300
                                                       1.300   1.300


     Atomic displacements:
     There are   4 irreducible representations

     Representation     1      1 modes -A_1g L_1 To be done

     Representation     2      2 modes -E_g  L_3 To be done

     Representation     3      1 modes -A_2u L_2' To be done

     Representation     4      2 modes -E_u  L_3' To be done



     Alpha used in Ewald sum =   2.8000

     negative rho (up, down):  0.157E-01 0.000E+00
     PHONON       : 43m16.67s CPU    45m57.84s WALL



     Representation #  1 mode #   1

     Self-consistent Calculation

      iter #   1 total cpu time :  2762.5 secs   av.it.:   5.0
      thresh= 0.100E-01 alpha_mix =  0.700 |ddv_scf|^2 =  0.112E-04

      iter #   2 total cpu time :  2772.4 secs   av.it.:  14.1
      thresh= 0.334E-03 alpha_mix =  0.700 |ddv_scf|^2 =  0.415E-04

      iter #   3 total cpu time :  2781.0 secs   av.it.:  11.9
      thresh= 0.644E-03 alpha_mix =  0.700 |ddv_scf|^2 =  0.271E-08

      iter #   4 total cpu time :  2793.1 secs   av.it.:  17.3
      thresh= 0.521E-05 alpha_mix =  0.700 |ddv_scf|^2 =  0.413E-09

      iter #   5 total cpu time :  2803.5 secs   av.it.:  15.1
      thresh= 0.203E-05 alpha_mix =  0.700 |ddv_scf|^2 =  0.165E-10

      iter #   6 total cpu time :  2813.8 secs   av.it.:  14.9
      thresh= 0.406E-06 alpha_mix =  0.700 |ddv_scf|^2 =  0.914E-13

      iter #   7 total cpu time :  2824.3 secs   av.it.:  15.5
      thresh= 0.302E-07 alpha_mix =  0.700 |ddv_scf|^2 =  0.968E-15

      iter #   8 total cpu time :  2835.1 secs   av.it.:  15.2
      thresh= 0.311E-08 alpha_mix =  0.700 |ddv_scf|^2 =  0.162E-16

     End of self-consistent calculation

     Convergence has been achieved 


     Representation #  2 modes #   2  3

     Self-consistent Calculation

      iter #   1 total cpu time :  2844.2 secs   av.it.:   4.4
      thresh= 0.100E-01 alpha_mix =  0.700 |ddv_scf|^2 =  0.526E-07

      iter #   2 total cpu time :  2866.0 secs   av.it.:  16.2
      thresh= 0.229E-04 alpha_mix =  0.700 |ddv_scf|^2 =  0.448E-08

      iter #   3 total cpu time :  2888.6 secs   av.it.:  16.9
      thresh= 0.670E-05 alpha_mix =  0.700 |ddv_scf|^2 =  0.185E-09

      iter #   4 total cpu time :  2910.6 secs   av.it.:  16.4
      thresh= 0.136E-05 alpha_mix =  0.700 |ddv_scf|^2 =  0.113E-11

      iter #   5 total cpu time :  2934.0 secs   av.it.:  17.6
      thresh= 0.106E-06 alpha_mix =  0.700 |ddv_scf|^2 =  0.789E-14

      iter #   6 total cpu time :  2958.0 secs   av.it.:  17.9
      thresh= 0.888E-08 alpha_mix =  0.700 |ddv_scf|^2 =  0.305E-16

     End of self-consistent calculation

     Convergence has been achieved 


     Representation #  3 mode #   4

     Self-consistent Calculation

      iter #   1 total cpu time :  2965.8 secs   av.it.:   9.7
      thresh= 0.100E-01 alpha_mix =  0.700 |ddv_scf|^2 =  0.809E-04

      iter #   2 total cpu time :  2976.4 secs   av.it.:  15.5
      thresh= 0.899E-03 alpha_mix =  0.700 |ddv_scf|^2 =  0.412E-03

      iter #   3 total cpu time :  2985.4 secs   av.it.:  12.6
      thresh= 0.203E-02 alpha_mix =  0.700 |ddv_scf|^2 =  0.469E-06

      iter #   4 total cpu time :  2996.1 secs   av.it.:  15.6
      thresh= 0.684E-04 alpha_mix =  0.700 |ddv_scf|^2 =  0.132E-07

      iter #   5 total cpu time :  3005.7 secs   av.it.:  13.8
      thresh= 0.115E-04 alpha_mix =  0.700 |ddv_scf|^2 =  0.239E-09

      iter #   6 total cpu time :  3015.8 secs   av.it.:  14.8
      thresh= 0.155E-05 alpha_mix =  0.700 |ddv_scf|^2 =  0.518E-12

      iter #   7 total cpu time :  3026.3 secs   av.it.:  15.4
      thresh= 0.720E-07 alpha_mix =  0.700 |ddv_scf|^2 =  0.138E-13

      iter #   8 total cpu time :  3035.6 secs   av.it.:  12.8
      thresh= 0.117E-07 alpha_mix =  0.700 |ddv_scf|^2 =  0.101E-15

      iter #   9 total cpu time :  3046.2 secs   av.it.:  15.7
      thresh= 0.100E-08 alpha_mix =  0.700 |ddv_scf|^2 =  0.797E-17

     End of self-consistent calculation

     Convergence has been achieved 


     Representation #  4 modes #   5  6

     Self-consistent Calculation

      iter #   1 total cpu time :  3059.8 secs   av.it.:   8.5
      thresh= 0.100E-01 alpha_mix =  0.700 |ddv_scf|^2 =  0.107E-05

      iter #   2 total cpu time :  3083.6 secs   av.it.:  18.0
      thresh= 0.103E-03 alpha_mix =  0.700 |ddv_scf|^2 =  0.356E-06

      iter #   3 total cpu time :  3106.4 secs   av.it.:  17.1
      thresh= 0.596E-04 alpha_mix =  0.700 |ddv_scf|^2 =  0.182E-09

      iter #   4 total cpu time :  3130.9 secs   av.it.:  18.6
      thresh= 0.135E-05 alpha_mix =  0.700 |ddv_scf|^2 =  0.572E-11

      iter #   5 total cpu time :  3153.1 secs   av.it.:  16.6
      thresh= 0.239E-06 alpha_mix =  0.700 |ddv_scf|^2 =  0.288E-13

      iter #   6 total cpu time :  3175.8 secs   av.it.:  16.8
      thresh= 0.170E-07 alpha_mix =  0.700 |ddv_scf|^2 =  0.607E-15

      iter #   7 total cpu time :  3198.3 secs   av.it.:  16.8
      thresh= 0.246E-08 alpha_mix =  0.700 |ddv_scf|^2 =  0.345E-17

     End of self-consistent calculation

     Convergence has been achieved 
 
     Number of q in the star =    4
     List of q in the star:
          1  -0.501614472  -0.501614472   0.501614472
          2  -0.501614472   0.501614472   0.501614472
          3  -0.501614472  -0.501614472  -0.501614472
          4  -0.501614472   0.501614472  -0.501614472

     Diagonalizing the dynamical matrix

     q = (   -0.501614472  -0.501614472   0.501614472 ) 

 **************************************************************************
     omega( 1) =       1.655172 [THz] =      55.210607 [cm-1]
     omega( 2) =       1.655172 [THz] =      55.210607 [cm-1]
     omega( 3) =       2.995024 [THz] =      99.903242 [cm-1]
     omega( 4) =       3.714874 [THz] =     123.914859 [cm-1]
     omega( 5) =       3.714874 [THz] =     123.914859 [cm-1]
     omega( 6) =       4.270411 [THz] =     142.445567 [cm-1]
 **************************************************************************

     Mode symmetry, D_3d (-3m)  point group:

     omega(  1 -  2) =         55.2  [cm-1]   --> E_u  L_3'          
     omega(  3 -  3) =         99.9  [cm-1]   --> A_2u L_2'          
     omega(  4 -  5) =        123.9  [cm-1]   --> E_g  L_3           
     omega(  6 -  6) =        142.4  [cm-1]   --> A_1g L_1           

 **************************************************************************

     Calculation of q =    0.3344096   0.0000000   0.0000000
 
     Parallelization info
     --------------------
     sticks:   dense  smooth     PW     G-vecs:    dense   smooth      PW
     Min         228      77     23                 7916     1508     259
     Max         230      78     24                 7918     1527     261
     Sum        2749     925    283                95001    18197    3119
 


     bravais-lattice index     =            0
     lattice parameter (alat)  =      11.5651  a.u.
     unit-cell volume          =     382.9929 (a.u.)^3
     number of atoms/cell      =            2
     number of atomic types    =            2
     number of electrons       =        20.00
     number of Kohn-Sham states=           10
     kinetic-energy cutoff     =      50.0000  Ry
     charge density cutoff     =     600.0000  Ry
     Exchange-correlation      = PBESOL ( 1 410 8 0)
     EXX-fraction              =        0.00

     celldm(1)=  11.565124  celldm(2)=   0.000000  celldm(3)=   0.000000
     celldm(4)=   0.000000  celldm(5)=   0.000000  celldm(6)=   0.000000

     crystal axes: (cart. coord. in units of alat)
               a(1) = (   0.000000   0.498391   0.498391 )  
               a(2) = (   0.498391   0.000000   0.498391 )  
               a(3) = (   0.498391   0.498391   0.000000 )  

     reciprocal axes: (cart. coord. in units 2 pi/alat)
               b(1) = ( -1.003229  1.003229  1.003229 )  
               b(2) = (  1.003229 -1.003229  1.003229 )  
               b(3) = (  1.003229  1.003229 -1.003229 )  


     PseudoPot. # 1 for Pb read from file:
     /work/02599/asmiller/pseudo/gbrv/pbe_GBRV/pb_pbe_v1.uspp.F.UPF
     MD5 check sum: a5f44a0c8587cfbb5a05efeead6b9227
     Pseudo is Ultrasoft + core correction, Zval = 14.0
     Generated by new atomic code, or converted to UPF format
     Using radial grid of  899 points,  6 beta functions with: 
                l(1) =   0
                l(2) =   0
                l(3) =   1
                l(4) =   1
                l(5) =   2
                l(6) =   2
     Q(r) pseudized with  6 coefficients,  rinner =    1.000   1.000   1.000
                                                       1.000   1.000

     PseudoPot. # 2 for Se read from file:
     /work/02599/asmiller/pseudo/gbrv/pbe_GBRV/se_pbe_v1.uspp.F.UPF
     MD5 check sum: 7043f8c3d783c440dfcc8575b58f7dd3
     Pseudo is Ultrasoft + core correction, Zval =  6.0
     Generated by new atomic code, or converted to UPF format
     Using radial grid of  877 points,  6 beta functions with: 
                l(1) =   0
                l(2) =   0
                l(3) =   1
                l(4) =   1
                l(5) =   2
                l(6) =   2
     Q(r) pseudized with  8 coefficients,  rinner =    1.300   1.300   1.300
                                                       1.300   1.300

     atomic species   valence    mass     pseudopotential
        Pb            14.00   207.20000     Pb( 1.00)
        Se             6.00    78.96000     Se( 1.00)

     48 Sym. Ops., with inversion, found



   Cartesian axes

     site n.     atom                  positions (alat units)
         1           Pb  tau(   1) = (   0.0000000   0.0000000   0.0000000  )
         2           Se  tau(   2) = (   0.4983907   0.4983907   0.4983907  )

     number of k points=   588

     Number of k-points >= 100: set verbosity='high' to print them.

     Dense  grid:    95001 G-vectors     FFT dimensions: (  64,  64,  64)

     Smooth grid:    18197 G-vectors     FFT dimensions: (  40,  40,  40)

     Largest allocated arrays     est. size (Mb)     dimensions
        Kohn-Sham Wavefunctions         0.03 Mb     (    209,   10)
        NL pseudopotentials             0.11 Mb     (    209,   36)
        Each V/rho on FFT grid          0.38 Mb     (  24576)
        Each G-vector array             0.06 Mb     (   7917)
        G-vector shells                 0.01 Mb     (    662)
     Largest temporary arrays     est. size (Mb)     dimensions
        Auxiliary wavefunctions         0.13 Mb     (    209,   40)
        Each subspace H/S matrix        0.02 Mb     (  40,  40)
        Each <psi_i|beta_j> matrix      0.01 Mb     (     36,   10)

     The potential is recalculated from file :
     ./_ph0/PbSe.save/charge-density.dat


     negative rho (up, down):  0.157E-01 0.000E+00
     Starting wfc are   13 atomic wfcs

     total cpu time spent up to now is      165.0 secs

     per-process dynamical memory:    68.2 Mb

     Band Structure Calculation
     Davidson diagonalization with overlap

     ethr =  5.00E-11,  avg # of iterations = 28.0

     total cpu time spent up to now is      208.0 secs

     End of band structure calculation

     Number of k-points >= 100: set verbosity='high' to print the bands.

     Writing output data file PbSe.save

                                                                                

     bravais-lattice index     =            0
     lattice parameter (alat)  =      11.5651  a.u.
     unit-cell volume          =     382.9929 (a.u.)^3
     number of atoms/cell      =            2
     number of atomic types    =            2
     kinetic-energy cut-off    =      50.0000  Ry
     charge density cut-off    =     600.0000  Ry
     convergence threshold     =      1.0E-16
     beta                      =       0.7000
     number of iterations used =            4
     Exchange-correlation      = PBESOL ( 1 410 8 0)
     EXX-fraction              =        0.00


     celldm(1)=   11.56512  celldm(2)=    0.00000  celldm(3)=    0.00000
     celldm(4)=    0.00000  celldm(5)=    0.00000  celldm(6)=    0.00000

     crystal axes: (cart. coord. in units of alat)
               a(1) = (  0.0000  0.4984  0.4984 )  
               a(2) = (  0.4984  0.0000  0.4984 )  
               a(3) = (  0.4984  0.4984  0.0000 )  

     reciprocal axes: (cart. coord. in units 2 pi/alat)
               b(1) = ( -1.0032  1.0032  1.0032 )  
               b(2) = (  1.0032 -1.0032  1.0032 )  
               b(3) = (  1.0032  1.0032 -1.0032 )  


     Atoms inside the unit cell: 

   Cartesian axes

     site n.  atom      mass           positions (alat units)
        1        Pb 207.2000   tau( 1) = (    0.00000    0.00000    0.00000  )
        2        Se  78.9600   tau( 2) = (    0.49839    0.49839    0.49839  )

     Computing dynamical matrix for 
                    q = (   0.3344096   0.0000000   0.0000000 )
 
      8 Sym.Ops. (no q -> -q+G )


     G cutoff = 2032.7880  (   7917 G-vectors)     FFT grid: ( 64, 64, 64)
     G cutoff =  677.5960  (   1518 G-vectors)  smooth grid: ( 40, 40, 40)
     number of k points=   588

     PseudoPot. # 1 for Pb read from file:
     /work/02599/asmiller/pseudo/gbrv/pbe_GBRV/pb_pbe_v1.uspp.F.UPF
     MD5 check sum: a5f44a0c8587cfbb5a05efeead6b9227
     Pseudo is Ultrasoft + core correction, Zval = 14.0
     Generated by new atomic code, or converted to UPF format
     Using radial grid of  899 points,  6 beta functions with: 
                l(1) =   0
                l(2) =   0
                l(3) =   1
                l(4) =   1
                l(5) =   2
                l(6) =   2
     Q(r) pseudized with  6 coefficients,  rinner =    1.000   1.000   1.000
                                                       1.000   1.000

     PseudoPot. # 2 for Se read from file:
     /work/02599/asmiller/pseudo/gbrv/pbe_GBRV/se_pbe_v1.uspp.F.UPF
     MD5 check sum: 7043f8c3d783c440dfcc8575b58f7dd3
     Pseudo is Ultrasoft + core correction, Zval =  6.0
     Generated by new atomic code, or converted to UPF format
     Using radial grid of  877 points,  6 beta functions with: 
                l(1) =   0
                l(2) =   0
                l(3) =   1
                l(4) =   1
                l(5) =   2
                l(6) =   2
     Q(r) pseudized with  8 coefficients,  rinner =    1.300   1.300   1.300
                                                       1.300   1.300


     Atomic displacements:
     There are   4 irreducible representations

     Representation     1      1 modes -A_1  G_1 D_1 To be done

     Representation     2      1 modes -A_1  G_1 D_1 To be done

     Representation     3      2 modes -E    G_5 D_5 To be done

     Representation     4      2 modes -E    G_5 D_5 To be done



     Alpha used in Ewald sum =   2.8000

     negative rho (up, down):  0.157E-01 0.000E+00
     PHONON       : 50m58.88s CPU    54m 9.79s WALL



     Representation #  1 mode #   1

     Self-consistent Calculation

      iter #   1 total cpu time :  3257.9 secs   av.it.:   6.2
      thresh= 0.100E-01 alpha_mix =  0.700 |ddv_scf|^2 =  0.334E-03

      iter #   2 total cpu time :  3271.4 secs   av.it.:  12.6
      thresh= 0.183E-02 alpha_mix =  0.700 |ddv_scf|^2 =  0.106E-01

      iter #   3 total cpu time :  3281.8 secs   av.it.:   9.1
      thresh= 0.100E-01 alpha_mix =  0.700 |ddv_scf|^2 =  0.917E-07

      iter #   4 total cpu time :  3298.9 secs   av.it.:  16.6
      thresh= 0.303E-04 alpha_mix =  0.700 |ddv_scf|^2 =  0.190E-06

      iter #   5 total cpu time :  3312.8 secs   av.it.:  13.1
      thresh= 0.435E-04 alpha_mix =  0.700 |ddv_scf|^2 =  0.270E-08

      iter #   6 total cpu time :  3327.8 secs   av.it.:  14.3
      thresh= 0.520E-05 alpha_mix =  0.700 |ddv_scf|^2 =  0.631E-10

      iter #   7 total cpu time :  3344.2 secs   av.it.:  15.8
      thresh= 0.795E-06 alpha_mix =  0.700 |ddv_scf|^2 =  0.190E-11

      iter #   8 total cpu time :  3359.7 secs   av.it.:  15.0
      thresh= 0.138E-06 alpha_mix =  0.700 |ddv_scf|^2 =  0.369E-12

      iter #   9 total cpu time :  3374.3 secs   av.it.:  13.8
      thresh= 0.607E-07 alpha_mix =  0.700 |ddv_scf|^2 =  0.246E-14

      iter #  10 total cpu time :  3392.0 secs   av.it.:  16.8
      thresh= 0.496E-08 alpha_mix =  0.700 |ddv_scf|^2 =  0.130E-14

      iter #  11 total cpu time :  3406.6 secs   av.it.:  13.9
      thresh= 0.361E-08 alpha_mix =  0.700 |ddv_scf|^2 =  0.484E-15

      iter #  12 total cpu time :  3420.3 secs   av.it.:  12.9
      thresh= 0.220E-08 alpha_mix =  0.700 |ddv_scf|^2 =  0.301E-15

      iter #  13 total cpu time :  3434.7 secs   av.it.:  13.6
      thresh= 0.173E-08 alpha_mix =  0.700 |ddv_scf|^2 =  0.105E-16

     End of self-consistent calculation

     Convergence has been achieved 


     Representation #  2 mode #   2

     Self-consistent Calculation

      iter #   1 total cpu time :  3445.6 secs   av.it.:   8.9
      thresh= 0.100E-01 alpha_mix =  0.700 |ddv_scf|^2 =  0.180E-02

      iter #   2 total cpu time :  3459.3 secs   av.it.:  12.8
      thresh= 0.424E-02 alpha_mix =  0.700 |ddv_scf|^2 =  0.585E-01

      iter #   3 total cpu time :  3471.2 secs   av.it.:  10.5
      thresh= 0.100E-01 alpha_mix =  0.700 |ddv_scf|^2 =  0.924E-05

      iter #   4 total cpu time :  3486.0 secs   av.it.:  14.1
      thresh= 0.304E-03 alpha_mix =  0.700 |ddv_scf|^2 =  0.963E-06

      iter #   5 total cpu time :  3500.5 secs   av.it.:  13.7
      thresh= 0.981E-04 alpha_mix =  0.700 |ddv_scf|^2 =  0.362E-08

      iter #   6 total cpu time :  3516.2 secs   av.it.:  15.1
      thresh= 0.601E-05 alpha_mix =  0.700 |ddv_scf|^2 =  0.206E-09

      iter #   7 total cpu time :  3531.1 secs   av.it.:  14.2
      thresh= 0.144E-05 alpha_mix =  0.700 |ddv_scf|^2 =  0.408E-10

      iter #   8 total cpu time :  3544.2 secs   av.it.:  12.2
      thresh= 0.639E-06 alpha_mix =  0.700 |ddv_scf|^2 =  0.412E-13

      iter #   9 total cpu time :  3560.7 secs   av.it.:  15.8
      thresh= 0.203E-07 alpha_mix =  0.700 |ddv_scf|^2 =  0.162E-14

      iter #  10 total cpu time :  3576.3 secs   av.it.:  15.0
      thresh= 0.403E-08 alpha_mix =  0.700 |ddv_scf|^2 =  0.152E-14

      iter #  11 total cpu time :  3590.6 secs   av.it.:  13.6
      thresh= 0.390E-08 alpha_mix =  0.700 |ddv_scf|^2 =  0.901E-15

      iter #  12 total cpu time :  3602.3 secs   av.it.:  10.3
      thresh= 0.300E-08 alpha_mix =  0.700 |ddv_scf|^2 =  0.355E-17

     End of self-consistent calculation

     Convergence has been achieved 


     Representation #  3 modes #   3  4

     Self-consistent Calculation

      iter #   1 total cpu time :  3617.1 secs   av.it.:   5.4
      thresh= 0.100E-01 alpha_mix =  0.700 |ddv_scf|^2 =  0.578E-07

      iter #   2 total cpu time :  3652.8 secs   av.it.:  17.6
      thresh= 0.240E-04 alpha_mix =  0.700 |ddv_scf|^2 =  0.106E-07

      iter #   3 total cpu time :  3689.1 secs   av.it.:  18.0
      thresh= 0.103E-04 alpha_mix =  0.700 |ddv_scf|^2 =  0.519E-09

      iter #   4 total cpu time :  3725.9 secs   av.it.:  18.1
      thresh= 0.228E-05 alpha_mix =  0.700 |ddv_scf|^2 =  0.167E-10

      iter #   5 total cpu time :  3762.1 secs   av.it.:  17.9
      thresh= 0.408E-06 alpha_mix =  0.700 |ddv_scf|^2 =  0.207E-12

      iter #   6 total cpu time :  3798.1 secs   av.it.:  17.8
      thresh= 0.455E-07 alpha_mix =  0.700 |ddv_scf|^2 =  0.143E-14

      iter #   7 total cpu time :  3834.2 secs   av.it.:  17.8
      thresh= 0.378E-08 alpha_mix =  0.700 |ddv_scf|^2 =  0.333E-16

     End of self-consistent calculation

     Convergence has been achieved 


     Representation #  4 modes #   5  6

     Self-consistent Calculation

      iter #   1 total cpu time :  3854.3 secs   av.it.:   8.1
      thresh= 0.100E-01 alpha_mix =  0.700 |ddv_scf|^2 =  0.112E-05

      iter #   2 total cpu time :  3890.7 secs   av.it.:  18.0
      thresh= 0.106E-03 alpha_mix =  0.700 |ddv_scf|^2 =  0.438E-06

      iter #   3 total cpu time :  3926.2 secs   av.it.:  17.4
      thresh= 0.662E-04 alpha_mix =  0.700 |ddv_scf|^2 =  0.351E-09

      iter #   4 total cpu time :  3964.1 secs   av.it.:  18.9
      thresh= 0.187E-05 alpha_mix =  0.700 |ddv_scf|^2 =  0.212E-10

      iter #   5 total cpu time :  4001.4 secs   av.it.:  18.5
      thresh= 0.461E-06 alpha_mix =  0.700 |ddv_scf|^2 =  0.111E-11

      iter #   6 total cpu time :  4035.8 secs   av.it.:  16.9
      thresh= 0.105E-06 alpha_mix =  0.700 |ddv_scf|^2 =  0.370E-14

      iter #   7 total cpu time :  4071.2 secs   av.it.:  17.5
      thresh= 0.608E-08 alpha_mix =  0.700 |ddv_scf|^2 =  0.238E-15

      iter #   8 total cpu time :  4106.6 secs   av.it.:  17.4
      thresh= 0.154E-08 alpha_mix =  0.700 |ddv_scf|^2 =  0.151E-17

     End of self-consistent calculation

     Convergence has been achieved 
 
     Number of q in the star =    6
     List of q in the star:
          1   0.334409648   0.000000000   0.000000000
          2   0.000000000   0.000000000   0.334409648
          3   0.000000000  -0.334409648   0.000000000
          4   0.000000000   0.000000000  -0.334409648
          5  -0.334409648   0.000000000   0.000000000
          6   0.000000000   0.334409648   0.000000000

     Diagonalizing the dynamical matrix

     q = (    0.334409648   0.000000000   0.000000000 ) 

 **************************************************************************
     omega( 1) =       0.608006 [THz] =      20.280882 [cm-1]
     omega( 2) =       0.608006 [THz] =      20.280882 [cm-1]
     omega( 3) =       1.880850 [THz] =      62.738394 [cm-1]
     omega( 4) =       2.124051 [THz] =      70.850726 [cm-1]
     omega( 5) =       2.124051 [THz] =      70.850726 [cm-1]
     omega( 6) =       4.175936 [THz] =     139.294224 [cm-1]
 **************************************************************************

     Mode symmetry, C_4v (4mm)  point group:

     omega(  1 -  2) =         20.3  [cm-1]   --> E    G_5 D_5       
     omega(  3 -  3) =         62.7  [cm-1]   --> A_1  G_1 D_1       
     omega(  4 -  5) =         70.9  [cm-1]   --> E    G_5 D_5       
     omega(  6 -  6) =        139.3  [cm-1]   --> A_1  G_1 D_1       

 **************************************************************************

     Calculation of q =    0.5016145   0.1672048  -0.1672048
 
     Parallelization info
     --------------------
     sticks:   dense  smooth     PW     G-vecs:    dense   smooth      PW
     Min         228      77     25                 7916     1509     281
     Max         230      78     26                 7918     1524     283
     Sum        2749     925    301                95001    18197    3383
 


     bravais-lattice index     =            0
     lattice parameter (alat)  =      11.5651  a.u.
     unit-cell volume          =     382.9929 (a.u.)^3
     number of atoms/cell      =            2
     number of atomic types    =            2
     number of electrons       =        20.00
     number of Kohn-Sham states=           10
     kinetic-energy cutoff     =      50.0000  Ry
     charge density cutoff     =     600.0000  Ry
     Exchange-correlation      = PBESOL ( 1 410 8 0)
     EXX-fraction              =        0.00

     celldm(1)=  11.565124  celldm(2)=   0.000000  celldm(3)=   0.000000
     celldm(4)=   0.000000  celldm(5)=   0.000000  celldm(6)=   0.000000

     crystal axes: (cart. coord. in units of alat)
               a(1) = (   0.000000   0.498391   0.498391 )  
               a(2) = (   0.498391   0.000000   0.498391 )  
               a(3) = (   0.498391   0.498391   0.000000 )  

     reciprocal axes: (cart. coord. in units 2 pi/alat)
               b(1) = ( -1.003229  1.003229  1.003229 )  
               b(2) = (  1.003229 -1.003229  1.003229 )  
               b(3) = (  1.003229  1.003229 -1.003229 )  


     PseudoPot. # 1 for Pb read from file:
     /work/02599/asmiller/pseudo/gbrv/pbe_GBRV/pb_pbe_v1.uspp.F.UPF
     MD5 check sum: a5f44a0c8587cfbb5a05efeead6b9227
     Pseudo is Ultrasoft + core correction, Zval = 14.0
     Generated by new atomic code, or converted to UPF format
     Using radial grid of  899 points,  6 beta functions with: 
                l(1) =   0
                l(2) =   0
                l(3) =   1
                l(4) =   1
                l(5) =   2
                l(6) =   2
     Q(r) pseudized with  6 coefficients,  rinner =    1.000   1.000   1.000
                                                       1.000   1.000

     PseudoPot. # 2 for Se read from file:
     /work/02599/asmiller/pseudo/gbrv/pbe_GBRV/se_pbe_v1.uspp.F.UPF
     MD5 check sum: 7043f8c3d783c440dfcc8575b58f7dd3
     Pseudo is Ultrasoft + core correction, Zval =  6.0
     Generated by new atomic code, or converted to UPF format
     Using radial grid of  877 points,  6 beta functions with: 
                l(1) =   0
                l(2) =   0
                l(3) =   1
                l(4) =   1
                l(5) =   2
                l(6) =   2
     Q(r) pseudized with  8 coefficients,  rinner =    1.300   1.300   1.300
                                                       1.300   1.300

     atomic species   valence    mass     pseudopotential
        Pb            14.00   207.20000     Pb( 1.00)
        Se             6.00    78.96000     Se( 1.00)

     48 Sym. Ops., with inversion, found



   Cartesian axes

     site n.     atom                  positions (alat units)
         1           Pb  tau(   1) = (   0.0000000   0.0000000   0.0000000  )
         2           Se  tau(   2) = (   0.4983907   0.4983907   0.4983907  )

     number of k points=  1872

     Number of k-points >= 100: set verbosity='high' to print them.

     Dense  grid:    95001 G-vectors     FFT dimensions: (  64,  64,  64)

     Smooth grid:    18197 G-vectors     FFT dimensions: (  40,  40,  40)

     Largest allocated arrays     est. size (Mb)     dimensions
        Kohn-Sham Wavefunctions         0.03 Mb     (    211,   10)
        NL pseudopotentials             0.12 Mb     (    211,   36)
        Each V/rho on FFT grid          0.38 Mb     (  24576)
        Each G-vector array             0.06 Mb     (   7917)
        G-vector shells                 0.01 Mb     (    662)
     Largest temporary arrays     est. size (Mb)     dimensions
        Auxiliary wavefunctions         0.13 Mb     (    211,   40)
        Each subspace H/S matrix        0.02 Mb     (  40,  40)
        Each <psi_i|beta_j> matrix      0.01 Mb     (     36,   10)

     The potential is recalculated from file :
     ./_ph0/PbSe.save/charge-density.dat


     negative rho (up, down):  0.157E-01 0.000E+00
     Starting wfc are   13 atomic wfcs

     total cpu time spent up to now is      209.5 secs

     per-process dynamical memory:    68.2 Mb

     Band Structure Calculation
     Davidson diagonalization with overlap

     ethr =  5.00E-11,  avg # of iterations = 28.6

     total cpu time spent up to now is      384.8 secs

     End of band structure calculation

     Number of k-points >= 100: set verbosity='high' to print the bands.

     Writing output data file PbSe.save

                                                                                

     bravais-lattice index     =            0
     lattice parameter (alat)  =      11.5651  a.u.
     unit-cell volume          =     382.9929 (a.u.)^3
     number of atoms/cell      =            2
     number of atomic types    =            2
[...]
        Each <psi_i|beta_j> matrix      0.01 Mb     (     36,   10)

     The potential is recalculated from file :
     ./_ph0/PbSe.save/charge-density.dat


     negative rho (up, down):  0.157E-01 0.000E+00
     Starting wfc are   13 atomic wfcs

     total cpu time spent up to now is     1350.8 secs

     per-process dynamical memory:    80.6 Mb

     Band Structure Calculation
     Davidson diagonalization with overlap

     ethr =  5.00E-11,  avg # of iterations = 28.3

     total cpu time spent up to now is     1428.4 secs

     End of band structure calculation

     Number of k-points >= 100: set verbosity='high' to print the bands.

     Writing output data file PbSe.save

                                                                                

     bravais-lattice index     =            0
     lattice parameter (alat)  =      11.5651  a.u.
     unit-cell volume          =     382.9929 (a.u.)^3
     number of atoms/cell      =            2
     number of atomic types    =            2
     kinetic-energy cut-off    =      50.0000  Ry
     charge density cut-off    =     600.0000  Ry
     convergence threshold     =      1.0E-16
     beta                      =       0.7000
     number of iterations used =            4
     Exchange-correlation      = PBESOL ( 1 410 8 0)
     EXX-fraction              =        0.00


     celldm(1)=   11.56512  celldm(2)=    0.00000  celldm(3)=    0.00000
     celldm(4)=    0.00000  celldm(5)=    0.00000  celldm(6)=    0.00000

     crystal axes: (cart. coord. in units of alat)
               a(1) = (  0.0000  0.4984  0.4984 )  
               a(2) = (  0.4984  0.0000  0.4984 )  
               a(3) = (  0.4984  0.4984  0.0000 )  

     reciprocal axes: (cart. coord. in units 2 pi/alat)
               b(1) = ( -1.0032  1.0032  1.0032 )  
               b(2) = (  1.0032 -1.0032  1.0032 )  
               b(3) = (  1.0032  1.0032 -1.0032 )  


     Atoms inside the unit cell: 

   Cartesian axes

     site n.  atom      mass           positions (alat units)
        1        Pb 207.2000   tau( 1) = (    0.00000    0.00000    0.00000  )
        2        Se  78.9600   tau( 2) = (    0.49839    0.49839    0.49839  )

     Computing dynamical matrix for 
                    q = (  -1.0032289   0.3344096   0.0000000 )
 
      4 Sym.Ops. (no q -> -q+G )


     G cutoff = 2032.7880  (   7917 G-vectors)     FFT grid: ( 64, 64, 64)
     G cutoff =  677.5960  (   1521 G-vectors)  smooth grid: ( 40, 40, 40)
     number of k points=  1020

     PseudoPot. # 1 for Pb read from file:
     /work/02599/asmiller/pseudo/gbrv/pbe_GBRV/pb_pbe_v1.uspp.F.UPF
     MD5 check sum: a5f44a0c8587cfbb5a05efeead6b9227
     Pseudo is Ultrasoft + core correction, Zval = 14.0
     Generated by new atomic code, or converted to UPF format
     Using radial grid of  899 points,  6 beta functions with: 
                l(1) =   0
                l(2) =   0
                l(3) =   1
                l(4) =   1
                l(5) =   2
                l(6) =   2
     Q(r) pseudized with  6 coefficients,  rinner =    1.000   1.000   1.000
                                                       1.000   1.000

     PseudoPot. # 2 for Se read from file:
     /work/02599/asmiller/pseudo/gbrv/pbe_GBRV/se_pbe_v1.uspp.F.UPF
     MD5 check sum: 7043f8c3d783c440dfcc8575b58f7dd3
     Pseudo is Ultrasoft + core correction, Zval =  6.0
     Generated by new atomic code, or converted to UPF format
     Using radial grid of  877 points,  6 beta functions with: 
                l(1) =   0
                l(2) =   0
                l(3) =   1
                l(4) =   1
                l(5) =   2
                l(6) =   2
     Q(r) pseudized with  8 coefficients,  rinner =    1.300   1.300   1.300
                                                       1.300   1.300


     Atomic displacements:
     There are   6 irreducible representations

     Representation     1      1 modes -A_1  D_1  S_1 To be done

     Representation     2      1 modes -A_1  D_1  S_1 To be done

     Representation     3      1 modes -B_1  D_3  S_3 To be done

     Representation     4      1 modes -B_1  D_3  S_3 To be done

     Representation     5      1 modes -B_2  D_4  S_4 To be done

     Representation     6      1 modes -B_2  D_4  S_4 To be done



     Alpha used in Ewald sum =   2.8000

     negative rho (up, down):  0.157E-01 0.000E+00
     PHONON       :     8h 1m CPU        8h31m WALL



     Representation #  1 mode #   1

     Self-consistent Calculation

      iter #   1 total cpu time : 30692.5 secs   av.it.:   5.2
      thresh= 0.100E-01 alpha_mix =  0.700 |ddv_scf|^2 =  0.836E-06

      iter #   2 total cpu time : 30720.8 secs   av.it.:  15.7
      thresh= 0.914E-04 alpha_mix =  0.700 |ddv_scf|^2 =  0.549E-06

      iter #   3 total cpu time : 30748.1 secs   av.it.:  15.0
      thresh= 0.741E-04 alpha_mix =  0.700 |ddv_scf|^2 =  0.165E-08

      iter #   4 total cpu time : 30778.9 secs   av.it.:  17.2
      thresh= 0.407E-05 alpha_mix =  0.700 |ddv_scf|^2 =  0.164E-09

      iter #   5 total cpu time : 30808.5 secs   av.it.:  16.5
      thresh= 0.128E-05 alpha_mix =  0.700 |ddv_scf|^2 =  0.553E-10

      iter #   6 total cpu time : 30835.2 secs   av.it.:  14.6
      thresh= 0.743E-06 alpha_mix =  0.700 |ddv_scf|^2 =  0.214E-11

      iter #   7 total cpu time : 30863.9 secs   av.it.:  15.8
      thresh= 0.146E-06 alpha_mix =  0.700 |ddv_scf|^2 =  0.630E-13

      iter #   8 total cpu time : 30894.5 secs   av.it.:  17.1
      thresh= 0.251E-07 alpha_mix =  0.700 |ddv_scf|^2 =  0.129E-13

      iter #   9 total cpu time : 30923.2 secs   av.it.:  16.0
      thresh= 0.114E-07 alpha_mix =  0.700 |ddv_scf|^2 =  0.136E-14

      iter #  10 total cpu time : 30951.3 secs   av.it.:  15.5
      thresh= 0.368E-08 alpha_mix =  0.700 |ddv_scf|^2 =  0.258E-16

     End of self-consistent calculation

     Convergence has been achieved 


     Representation #  2 mode #   2

     Self-consistent Calculation

      iter #   1 total cpu time : 30969.1 secs   av.it.:   8.3
      thresh= 0.100E-01 alpha_mix =  0.700 |ddv_scf|^2 =  0.983E-05

      iter #   2 total cpu time : 30998.2 secs   av.it.:  16.1
      thresh= 0.314E-03 alpha_mix =  0.700 |ddv_scf|^2 =  0.136E-04

      iter #   3 total cpu time : 31024.6 secs   av.it.:  14.4
      thresh= 0.369E-03 alpha_mix =  0.700 |ddv_scf|^2 =  0.298E-06

      iter #   4 total cpu time : 31051.1 secs   av.it.:  14.5
      thresh= 0.546E-04 alpha_mix =  0.700 |ddv_scf|^2 =  0.317E-08

      iter #   5 total cpu time : 31079.7 secs   av.it.:  15.9
      thresh= 0.563E-05 alpha_mix =  0.700 |ddv_scf|^2 =  0.511E-09

      iter #   6 total cpu time : 31107.6 secs   av.it.:  15.4
      thresh= 0.226E-05 alpha_mix =  0.700 |ddv_scf|^2 =  0.108E-10

      iter #   7 total cpu time : 31136.8 secs   av.it.:  16.2
      thresh= 0.329E-06 alpha_mix =  0.700 |ddv_scf|^2 =  0.634E-12

      iter #   8 total cpu time : 31166.7 secs   av.it.:  16.7
      thresh= 0.796E-07 alpha_mix =  0.700 |ddv_scf|^2 =  0.149E-12

      iter #   9 total cpu time : 31194.6 secs   av.it.:  15.4
      thresh= 0.386E-07 alpha_mix =  0.700 |ddv_scf|^2 =  0.173E-13

      iter #  10 total cpu time : 31222.0 secs   av.it.:  15.0
      thresh= 0.132E-07 alpha_mix =  0.700 |ddv_scf|^2 =  0.672E-15

      iter #  11 total cpu time : 31250.8 secs   av.it.:  15.8
      thresh= 0.259E-08 alpha_mix =  0.700 |ddv_scf|^2 =  0.590E-16

     End of self-consistent calculation

     Convergence has been achieved 


     Representation #  3 mode #   3

     Self-consistent Calculation

      iter #   1 total cpu time : 31268.4 secs   av.it.:   8.2
      thresh= 0.100E-01 alpha_mix =  0.700 |ddv_scf|^2 =  0.111E-04

      iter #   2 total cpu time : 31297.3 secs   av.it.:  15.9
      thresh= 0.333E-03 alpha_mix =  0.700 |ddv_scf|^2 =  0.102E-04

      iter #   3 total cpu time : 31324.5 secs   av.it.:  14.8
      thresh= 0.319E-03 alpha_mix =  0.700 |ddv_scf|^2 =  0.400E-08

      iter #   4 total cpu time : 31354.6 secs   av.it.:  16.7
      thresh= 0.633E-05 alpha_mix =  0.700 |ddv_scf|^2 =  0.146E-09

      iter #   5 total cpu time : 31383.6 secs   av.it.:  16.1
      thresh= 0.121E-05 alpha_mix =  0.700 |ddv_scf|^2 =  0.745E-11

      iter #   6 total cpu time : 31411.1 secs   av.it.:  14.7
      thresh= 0.273E-06 alpha_mix =  0.700 |ddv_scf|^2 =  0.464E-13

      iter #   7 total cpu time : 31440.3 secs   av.it.:  16.1
      thresh= 0.215E-07 alpha_mix =  0.700 |ddv_scf|^2 =  0.154E-14

      iter #   8 total cpu time : 31469.5 secs   av.it.:  15.8
      thresh= 0.393E-08 alpha_mix =  0.700 |ddv_scf|^2 =  0.123E-16

     End of self-consistent calculation

     Convergence has been achieved 


     Representation #  4 mode #   4

     Self-consistent Calculation

      iter #   1 total cpu time : 31483.0 secs   av.it.:   5.8
      thresh= 0.100E-01 alpha_mix =  0.700 |ddv_scf|^2 =  0.943E-06

      iter #   2 total cpu time : 31511.4 secs   av.it.:  15.6
      thresh= 0.971E-04 alpha_mix =  0.700 |ddv_scf|^2 =  0.632E-06

      iter #   3 total cpu time : 31539.0 secs   av.it.:  15.1
      thresh= 0.795E-04 alpha_mix =  0.700 |ddv_scf|^2 =  0.352E-08

      iter #   4 total cpu time : 31568.0 secs   av.it.:  16.0
      thresh= 0.593E-05 alpha_mix =  0.700 |ddv_scf|^2 =  0.176E-09

      iter #   5 total cpu time : 31596.9 secs   av.it.:  15.9
      thresh= 0.133E-05 alpha_mix =  0.700 |ddv_scf|^2 =  0.369E-11

      iter #   6 total cpu time : 31624.7 secs   av.it.:  15.2
      thresh= 0.192E-06 alpha_mix =  0.700 |ddv_scf|^2 =  0.832E-14

      iter #   7 total cpu time : 31654.0 secs   av.it.:  15.9
      thresh= 0.912E-08 alpha_mix =  0.700 |ddv_scf|^2 =  0.281E-15

      iter #   8 total cpu time : 31683.3 secs   av.it.:  16.3
      thresh= 0.168E-08 alpha_mix =  0.700 |ddv_scf|^2 =  0.121E-16

     End of self-consistent calculation

     Convergence has been achieved 


     Representation #  5 mode #   5

     Self-consistent Calculation

      iter #   1 total cpu time : 31697.2 secs   av.it.:   6.0
      thresh= 0.100E-01 alpha_mix =  0.700 |ddv_scf|^2 =  0.267E-05

      iter #   2 total cpu time : 31725.5 secs   av.it.:  15.5
      thresh= 0.163E-03 alpha_mix =  0.700 |ddv_scf|^2 =  0.374E-05

      iter #   3 total cpu time : 31753.3 secs   av.it.:  14.5
      thresh= 0.193E-03 alpha_mix =  0.700 |ddv_scf|^2 =  0.576E-08

      iter #   4 total cpu time : 31782.4 secs   av.it.:  16.0
      thresh= 0.759E-05 alpha_mix =  0.700 |ddv_scf|^2 =  0.389E-09

      iter #   5 total cpu time : 31810.3 secs   av.it.:  15.3
      thresh= 0.197E-05 alpha_mix =  0.700 |ddv_scf|^2 =  0.855E-11

      iter #   6 total cpu time : 31837.4 secs   av.it.:  14.7
      thresh= 0.292E-06 alpha_mix =  0.700 |ddv_scf|^2 =  0.275E-13

      iter #   7 total cpu time : 31866.1 secs   av.it.:  15.7
      thresh= 0.166E-07 alpha_mix =  0.700 |ddv_scf|^2 =  0.469E-15

      iter #   8 total cpu time : 31895.4 secs   av.it.:  16.2
      thresh= 0.217E-08 alpha_mix =  0.700 |ddv_scf|^2 =  0.954E-17

     End of self-consistent calculation

     Convergence has been achieved 


     Representation #  6 mode #   6

     Self-consistent Calculation

      iter #   1 total cpu time : 31913.4 secs   av.it.:   8.5
      thresh= 0.100E-01 alpha_mix =  0.700 |ddv_scf|^2 =  0.249E-04

      iter #   2 total cpu time : 31941.9 secs   av.it.:  15.7
      thresh= 0.499E-03 alpha_mix =  0.700 |ddv_scf|^2 =  0.424E-04

      iter #   3 total cpu time : 31968.2 secs   av.it.:  14.3
      thresh= 0.651E-03 alpha_mix =  0.700 |ddv_scf|^2 =  0.133E-07

      iter #   4 total cpu time : 31996.6 secs   av.it.:  15.6
      thresh= 0.115E-04 alpha_mix =  0.700 |ddv_scf|^2 =  0.192E-09

      iter #   5 total cpu time : 32025.6 secs   av.it.:  16.1
      thresh= 0.139E-05 alpha_mix =  0.700 |ddv_scf|^2 =  0.115E-10

      iter #   6 total cpu time : 32051.8 secs   av.it.:  14.3
      thresh= 0.339E-06 alpha_mix =  0.700 |ddv_scf|^2 =  0.103E-12

      iter #   7 total cpu time : 32081.2 secs   av.it.:  16.1
      thresh= 0.322E-07 alpha_mix =  0.700 |ddv_scf|^2 =  0.127E-14

      iter #   8 total cpu time : 32109.7 secs   av.it.:  15.8
      thresh= 0.357E-08 alpha_mix =  0.700 |ddv_scf|^2 =  0.210E-16

     End of self-consistent calculation

     Convergence has been achieved 
 
     Number of q in the star =   12
     List of q in the star:
          1  -1.003228945   0.334409648   0.000000000
          2  -1.003228945  -0.334409648   0.000000000
          3  -1.003228945   0.000000000   0.334409648
          4   1.003228945   0.000000000  -0.334409648
          5   0.000000000  -0.334409648  -1.003228945
          6   0.334409648   0.000000000  -1.003228945
          7  -0.334409648   0.000000000   1.003228945
          8   0.000000000  -1.003228945  -0.334409648
          9   0.000000000  -1.003228945   0.334409648
         10   0.334409648   1.003228945   0.000000000
         11  -0.334409648   1.003228945   0.000000000
         12   0.000000000   0.334409648   1.003228945

     Diagonalizing the dynamical matrix

     q = (   -1.003228945   0.334409648   0.000000000 ) 

 **************************************************************************
     omega( 1) =       1.200776 [THz] =      40.053572 [cm-1]
     omega( 2) =       1.405502 [THz] =      46.882488 [cm-1]
     omega( 3) =       1.844360 [THz] =      61.521235 [cm-1]
     omega( 4) =       2.545206 [THz] =      84.898919 [cm-1]
     omega( 5) =       2.649819 [THz] =      88.388449 [cm-1]
     omega( 6) =       3.609639 [THz] =     120.404612 [cm-1]
 **************************************************************************

     Mode symmetry, C_2v (mm2)  point group:

     omega(  1 -  1) =         40.1  [cm-1]   --> B_1  D_3  S_3      
     omega(  2 -  2) =         46.9  [cm-1]   --> B_2  D_4  S_4      
     omega(  3 -  3) =         61.5  [cm-1]   --> A_1  D_1  S_1      
     omega(  4 -  4) =         84.9  [cm-1]   --> B_1  D_3  S_3      
     omega(  5 -  5) =         88.4  [cm-1]   --> B_2  D_4  S_4      
     omega(  6 -  6) =        120.4  [cm-1]   --> A_1  D_1  S_1      

 **************************************************************************
 
     init_run     :      9.26s CPU     10.29s WALL (      15 calls)
     electrons    :   1260.24s CPU   1390.88s WALL (      15 calls)

     Called by init_run:
     wfcinit      :      0.00s CPU      0.00s WALL (      15 calls)
     potinit      :      1.35s CPU      1.47s WALL (      15 calls)

     Called by electrons:
     c_bands      :   1259.97s CPU   1390.60s WALL (      15 calls)
     v_of_rho     :      0.44s CPU      0.44s WALL (      16 calls)
     newd         :      1.06s CPU      1.04s WALL (      16 calls)

     Called by c_bands:
     init_us_2    :     32.90s CPU     33.13s WALL (  316562 calls)
     cegterg      :   1047.16s CPU   1097.88s WALL (   16808 calls)

     Called by *egterg:
     h_psi        :    970.00s CPU   1023.44s WALL (  272297 calls)
     s_psi        :   1257.14s CPU   1297.55s WALL (12232934 calls)
     g_psi        :      6.44s CPU      6.52s WALL (  246733 calls)
     cdiaghg      :     93.92s CPU     95.67s WALL (  255489 calls)

     Called by h_psi:
     add_vuspsi   :    698.98s CPU    683.76s WALL ( 6112916 calls)

     General routines
     calbec       :   2061.70s CPU   2023.93s WALL (12716773 calls)
     fft          :     27.44s CPU     29.04s WALL (   17475 calls)
     ffts         :      9.50s CPU     10.60s WALL (   29310 calls)
     fftw         :  19456.41s CPU  21095.82s WALL (******** calls)
     interpolate  :      0.06s CPU      0.07s WALL (      31 calls)
     davcio       :      7.43s CPU     88.23s WALL ( 1416020 calls)
 
     Parallel routines
     fft_scatter  :   9784.41s CPU  11196.51s WALL (******** calls)
 
     PHONON       :     8h23m CPU        8h55m WALL

     INITIALIZATION: 
     phq_setup    :      0.96s CPU      2.07s WALL (      16 calls)
     phq_init     :    144.77s CPU    151.51s WALL (      16 calls)
 
     phq_init     :    144.77s CPU    151.51s WALL (      16 calls)
     set_drhoc    :     12.97s CPU     12.95s WALL (      48 calls)
     init_vloc    :      0.14s CPU      0.15s WALL (      16 calls)
     init_us_1    :      4.44s CPU      4.47s WALL (      16 calls)
     newd         :      1.06s CPU      1.04s WALL (      16 calls)
     dvanqq       :     12.90s CPU     12.91s WALL (      16 calls)
     drho         :     98.17s CPU    103.81s WALL (      16 calls)
 
     DYNAMICAL MATRIX:
     dynmat0      :     19.81s CPU     20.52s WALL (      16 calls)
     phqscf       :  28684.27s CPU  30398.35s WALL (      16 calls)
     dynmatrix    :      0.20s CPU      1.37s WALL (      16 calls)
 
     phqscf       :  28684.27s CPU  30398.35s WALL (      16 calls)
     solve_linter :  28654.71s CPU  30363.72s WALL (      80 calls)
     drhodv       :     27.24s CPU     28.24s WALL (      80 calls)
 
     dynmat0      :     19.81s CPU     20.52s WALL (      16 calls)
     dynmat_us    :     10.79s CPU     10.91s WALL (      16 calls)
     d2ionq       :      0.03s CPU      0.07s WALL (      16 calls)
     dynmatcc     :      8.81s CPU      8.83s WALL (      16 calls)
 
     dynmat_us    :     10.79s CPU     10.91s WALL (      16 calls)
     addusdynmat  :      0.00s CPU      0.00s WALL (      16 calls)
 
     phqscf       :  28684.27s CPU  30398.35s WALL (      16 calls)
     solve_linter :  28654.71s CPU  30363.72s WALL (      80 calls)
 
     solve_linter :  28654.71s CPU  30363.72s WALL (      80 calls)
     dvqpsi_us    :    138.27s CPU    147.43s WALL (   26700 calls)
     ortho        :    131.89s CPU    130.88s WALL (  279291 calls)
     cgsolve      :  25438.82s CPU  26882.59s WALL (  279291 calls)
     incdrhoscf   :   1307.47s CPU   1396.07s WALL (  279291 calls)
     addusddens   :     76.72s CPU     77.18s WALL (     893 calls)
     vpsifft      :    989.24s CPU   1073.34s WALL (  251943 calls)
     dv_of_drho   :     26.55s CPU     27.77s WALL (     955 calls)
     mix_pot      :      6.22s CPU     19.16s WALL (     820 calls)
     psymdvscf    :     57.83s CPU     60.95s WALL (     813 calls)
     newdq        :     74.74s CPU     74.77s WALL (     820 calls)
     adddvscf     :     50.79s CPU     49.88s WALL (  252591 calls)
     drhodvus     :      0.11s CPU      0.22s WALL (      80 calls)
 
     dvqpsi_us    :    138.27s CPU    147.43s WALL (   26700 calls)
     dvqpsi_us_on :     24.89s CPU     24.54s WALL (   26700 calls)
 
     cgsolve      :  25438.82s CPU  26882.59s WALL (  279291 calls)
     ch_psi       :  24885.88s CPU  26342.14s WALL ( 5840619 calls)
 
     ch_psi       :  24885.88s CPU  26342.14s WALL ( 5840619 calls)
     h_psiq       :  22685.15s CPU  24112.08s WALL ( 5840619 calls)
     last         :   2157.64s CPU   2177.06s WALL ( 5840619 calls)
 
     h_psiq       :  22685.15s CPU  24112.08s WALL ( 5840619 calls)
     firstfft     :  12229.68s CPU  12874.28s WALL (43781683 calls)
     secondfft    :   7678.74s CPU   8448.53s WALL (43781683 calls)
     add_vuspsi   :    698.98s CPU    683.76s WALL ( 6112916 calls)
 
     incdrhoscf   :   1307.47s CPU   1396.07s WALL (  279291 calls)
     addusdbec    :     64.06s CPU     64.59s WALL (  305775 calls)
 
     drhodvus     :      0.11s CPU      0.22s WALL (      80 calls)
 
      General routines
     calbec       :   2061.70s CPU   2023.93s WALL (12716773 calls)
     fft          :     27.44s CPU     29.04s WALL (   17475 calls)
     ffts         :      9.50s CPU     10.60s WALL (   29310 calls)
     fftw         :  19456.41s CPU  21095.82s WALL (******** calls)
     cinterpolate :      4.34s CPU      4.69s WALL (    2003 calls)
     davcio       :      7.43s CPU     88.23s WALL ( 1416020 calls)
     write_rec    :      2.95s CPU     16.91s WALL (     900 calls)
 
TACC: Shutting down parallel environment.
TACC: Shutdown complete. Exiting.
